
    -----------------------------------------------------------------------
          Psi4: An Open-Source Ab Initio Electronic Structure Package
                               Psi4 1.9.1 release

                         Git: Rev {} zzzzzzz 


    D. G. A. Smith, L. A. Burns, A. C. Simmonett, R. M. Parrish,
    M. C. Schieber, R. Galvelis, P. Kraus, H. Kruse, R. Di Remigio,
    A. Alenaizan, A. M. James, S. Lehtola, J. P. Misiewicz, M. Scheurer,
    R. A. Shaw, J. B. Schriber, Y. Xie, Z. L. Glick, D. A. Sirianni,
    J. S. O'Brien, J. M. Waldrop, A. Kumar, E. G. Hohenstein,
    B. P. Pritchard, B. R. Brooks, H. F. Schaefer III, A. Yu. Sokolov,
    K. Patkowski, A. E. DePrince III, U. Bozkaya, R. A. King,
    F. A. Evangelista, J. M. Turney, T. D. Crawford, C. D. Sherrill,
    J. Chem. Phys. 152(18) 184108 (2020). https://doi.org/10.1063/5.0006002

                            Additional Code Authors
    E. T. Seidl, C. L. Janssen, E. F. Valeev, M. L. Leininger,
    J. F. Gonthier, R. M. Richard, H. R. McAlexander, M. Saitow, X. Wang,
    P. Verma, M. H. Lechner, A. Jiang, S. Behnle, A. G. Heide,
    M. F. Herbst, and D. L. Poole

             Previous Authors, Complete List of Code Contributors,
                       and Citations for Specific Modules
    https://github.com/psi4/psi4/blob/master/codemeta.json
    https://github.com/psi4/psi4/graphs/contributors
    http://psicode.org/psi4manual/master/introduction.html#citing-psifour

    -----------------------------------------------------------------------


    Psi4 started on: Monday, 24 February 2025 07:44AM

    Process ID: 3199586
    Host:       hpc-m36-1-1.local
    PSIDATADIR: /gpfs/home/gdb20/.conda/envs/tutorial/share/psi4
    Memory:     953.7 MiB
    Threads:    1
    
Scratch directory: /tmp/
gradient() will perform analytic gradient computation.
   => Libint2 <=

    Primary   basis highest AM E, G, H:  6, 6, 3
    Auxiliary basis highest AM E, G, H:  7, 7, 4
    Onebody   basis highest AM E, G, H:  -, -, -
    Solid Harmonics ordering:            Gaussian

*** tstart() called on hpc-m36-1-1.local
*** at Mon Feb 24 07:45:00 2025

   => Loading Basis Set <=

    Name: STO-3G
    Role: ORBITAL
    Keyword: BASIS
    atoms 1-4  entry C          line    61 file /gpfs/home/gdb20/.conda/envs/tutorial/share/psi4/basis/sto-3g.gbs 
    atoms 5-10 entry H          line    19 file /gpfs/home/gdb20/.conda/envs/tutorial/share/psi4/basis/sto-3g.gbs 


         ---------------------------------------------------------
                                   SCF
               by Justin Turney, Rob Parrish, Andy Simmonett
                          and Daniel G. A. Smith
                              RHF Reference
                        1 Threads,    953 MiB Core
         ---------------------------------------------------------

  ==> Geometry <==

    Molecular point group: c1
    Full point group: C1

    Geometry (in Angstrom), charge = 0, multiplicity = 1:

       Center              X                  Y                   Z               Mass       
    ------------   -----------------  -----------------  -----------------  -----------------
         C           -1.777342624945     0.235847253054    -0.400090654756    12.000000000000
         C           -0.568330431475     0.478290017365     0.052280079371    12.000000000000
         C            0.568329564685    -0.478291328466    -0.052277117125    12.000000000000
         C            1.777343280556    -0.235846259447     0.400088414205    12.000000000000
         H           -2.030458917150    -0.695428743570    -0.888655644991     1.007825032230
         H           -2.579633121133     0.954665101147    -0.306744509506     1.007825032230
         H           -0.345810392313     1.422045739133     0.537750254629     1.007825032230
         H            0.345810684316    -1.422045294719    -0.537751262385     1.007825032230
         H            2.030459479283     0.695429531449     0.888653881109     1.007825032230
         H            2.579634781465    -0.954662553095     0.306738688050     1.007825032230

  Running in c1 symmetry.

  Rotational constants: A =      1.41077  B =      0.14844  C =      0.13431 [cm^-1]
  Rotational constants: A =  42293.70194  B =   4450.07117  C =   4026.41830 [MHz]
  Nuclear repulsion =  104.096472974055075

  Charge       = 0
  Multiplicity = 1
  Electrons    = 30
  Nalpha       = 15
  Nbeta        = 15

  ==> Algorithm <==

  SCF Algorithm Type is DF.
  DIIS enabled.
  MOM disabled.
  Fractional occupation disabled.
  Guess Type is SAD.
  Energy threshold   = 1.00e-08
  Density threshold  = 1.00e-08
  Integral threshold = 1.00e-12

  ==> Primary Basis <==

  Basis Set: STO-3G
    Blend: STO-3G
    Number of shells: 18
    Number of basis functions: 26
    Number of Cartesian functions: 26
    Spherical Harmonics?: true
    Max angular momentum: 1

   => Loading Basis Set <=

    Name: (STO-3G AUX)
    Role: JKFIT
    Keyword: DF_BASIS_SCF
    atoms 1-4  entry C          line   198 file /gpfs/home/gdb20/.conda/envs/tutorial/share/psi4/basis/def2-universal-jkfit.gbs 
    atoms 5-10 entry H          line    18 file /gpfs/home/gdb20/.conda/envs/tutorial/share/psi4/basis/def2-universal-jkfit.gbs 

  ==> Integral Setup <==

  DFHelper Memory: AOs need 0.003 GiB; user supplied 0.698 GiB. 
  Using in-core AOs.

  ==> MemDFJK: Density-Fitted J/K Matrices <==

    J tasked:                   Yes
    K tasked:                   Yes
    wK tasked:                   No
    OpenMP threads:               1
    Memory [MiB]:               715
    Algorithm:                 Core
    Schwarz Cutoff:           1E-12
    Mask sparsity (%):       0.8876
    Fitting Condition:        1E-10

   => Auxiliary Basis Set <=

  Basis Set: (STO-3G AUX)
    Blend: DEF2-UNIVERSAL-JKFIT
    Number of shells: 136
    Number of basis functions: 408
    Number of Cartesian functions: 476
    Spherical Harmonics?: true
    Max angular momentum: 4

  Minimum eigenvalue in the overlap matrix is 1.7869332900E-01.
  Reciprocal condition number of the overlap matrix is 7.5305098132E-02.
    Using symmetric orthogonalization.

  ==> Pre-Iterations <==

  SCF Guess: Superposition of Atomic Densities via on-the-fly atomic UHF (no occupation information).

   -------------------------
    Irrep   Nso     Nmo    
   -------------------------
     A         26      26 
   -------------------------
    Total      26      26
   -------------------------

  ==> Iterations <==

                           Total Energy        Delta E     RMS |[F,P]|

   @DF-RHF iter SAD:  -149.88050770365294   -1.49881e+02   0.00000e+00 
   @DF-RHF iter   1:  -153.01302455248893   -3.13252e+00   3.43069e-03 ADIIS/DIIS
   @DF-RHF iter   2:  -153.02018188108133   -7.15733e-03   9.43108e-04 ADIIS/DIIS
   @DF-RHF iter   3:  -153.02076016847798   -5.78287e-04   4.14953e-04 ADIIS/DIIS
   @DF-RHF iter   4:  -153.02085006535455   -8.98969e-05   5.45620e-05 DIIS
   @DF-RHF iter   5:  -153.02085337914477   -3.31379e-06   8.53387e-06 DIIS
   @DF-RHF iter   6:  -153.02085347272461   -9.35798e-08   7.28608e-07 DIIS
   @DF-RHF iter   7:  -153.02085347319064   -4.66031e-10   8.58464e-08 DIIS
   @DF-RHF iter   8:  -153.02085347319522   -4.57590e-12   2.71927e-08 DIIS
   @DF-RHF iter   9:  -153.02085347319581   -5.96856e-13   3.27478e-09 DIIS
  Energy and wave function converged.


  ==> Post-Iterations <==

    Orbital Energies [Eh]
    ---------------------

    Doubly Occupied:                                                      

       1A    -11.032287     2A    -11.032068     3A    -11.018136  
       4A    -11.018125     5A     -1.035262     6A     -0.952486  
       7A     -0.768729     8A     -0.709220     9A     -0.596549  
      10A     -0.591528    11A     -0.504603    12A     -0.497875  
      13A     -0.432490    14A     -0.399023    15A     -0.276202  

    Virtual:                                                              

      16A      0.256001    17A      0.420290    18A      0.578325  
      19A      0.669762    20A      0.681672    21A      0.696407  
      22A      0.708536    23A      0.885640    24A      0.936265  
      25A      1.019111    26A      1.106689  

    Final Occupation by Irrep:
              A 
    DOCC [    15 ]
    NA   [    15 ]
    NB   [    15 ]

  @DF-RHF Final Energy:  -153.02085347319581

   => Energetics <=

    Nuclear Repulsion Energy =            104.0964729740550752
    One-Electron Energy =                -412.5054869980510830
    Two-Electron Energy =                 155.3881605508001940
    Total Energy =                       -153.0208534731958139

Computation Completed


Properties will be evaluated at   0.000000,   0.000000,   0.000000 [a0]

Properties computed using the SCF density matrix


 Multipole Moments:

 ------------------------------------------------------------------------------------
     Multipole            Electronic (a.u.)      Nuclear  (a.u.)        Total (a.u.)
 ------------------------------------------------------------------------------------

 L = 1.  Multiply by 2.5417464519 to convert [e a0] to [Debye]
 Dipole X            :         -0.0000021            0.0000024            0.0000002
 Dipole Y            :         -0.0000032            0.0000035            0.0000004
 Dipole Z            :          0.0000072           -0.0000081           -0.0000008
 Magnitude           :                                                    0.0000009

 ------------------------------------------------------------------------------------

*** tstop() called on hpc-m36-1-1.local at Mon Feb 24 07:45:00 2025
Module time:
	user time   =       0.57 seconds =       0.01 minutes
	system time =       0.02 seconds =       0.00 minutes
	total time  =          0 seconds =       0.00 minutes
Total time:
	user time   =      17.73 seconds =       0.30 minutes
	system time =       0.43 seconds =       0.01 minutes
	total time  =         18 seconds =       0.30 minutes

*** tstart() called on hpc-m36-1-1.local
*** at Mon Feb 24 07:45:00 2025


         ------------------------------------------------------------
                                   SCF GRAD                          
                          Rob Parrish, Justin Turney,                
                       Andy Simmonett, and Alex Sokolov              
         ------------------------------------------------------------

  ==> Geometry <==

    Molecular point group: c1
    Full point group: C1

    Geometry (in Angstrom), charge = 0, multiplicity = 1:

       Center              X                  Y                   Z               Mass       
    ------------   -----------------  -----------------  -----------------  -----------------
         C           -1.777342624945     0.235847253054    -0.400090654756    12.000000000000
         C           -0.568330431475     0.478290017365     0.052280079371    12.000000000000
         C            0.568329564685    -0.478291328466    -0.052277117125    12.000000000000
         C            1.777343280556    -0.235846259447     0.400088414205    12.000000000000
         H           -2.030458917150    -0.695428743570    -0.888655644991     1.007825032230
         H           -2.579633121133     0.954665101147    -0.306744509506     1.007825032230
         H           -0.345810392313     1.422045739133     0.537750254629     1.007825032230
         H            0.345810684316    -1.422045294719    -0.537751262385     1.007825032230
         H            2.030459479283     0.695429531449     0.888653881109     1.007825032230
         H            2.579634781465    -0.954662553095     0.306738688050     1.007825032230

  Nuclear repulsion =  104.096472974055075

  ==> Basis Set <==

  Basis Set: STO-3G
    Blend: STO-3G
    Number of shells: 18
    Number of basis functions: 26
    Number of Cartesian functions: 26
    Spherical Harmonics?: true
    Max angular momentum: 1

  ==> DFJKGrad: Density-Fitted SCF Gradients <==

    Gradient:                    1
    J tasked:                  Yes
    K tasked:                  Yes
    wK tasked:                  No
    OpenMP threads:              1
    Integrals threads:           1
    Memory [MiB]:              715
    Schwarz Cutoff:          1E-12
    Fitting Condition:       1E-10

   => Auxiliary Basis Set <=

  Basis Set: (STO-3G AUX)
    Blend: DEF2-UNIVERSAL-JKFIT
    Number of shells: 136
    Number of basis functions: 408
    Number of Cartesian functions: 476
    Spherical Harmonics?: true
    Max angular momentum: 4


  -Total Gradient:
     Atom            X                  Y                   Z
    ------   -----------------  -----------------  -----------------
       1       -0.000074663687    -0.000018920274    -0.000033697803
       2        0.000088306064     0.000054242365     0.000047791844
       3       -0.000088539154    -0.000054516100    -0.000047194123
       4        0.000074782821     0.000019061041     0.000033407264
       5        0.000005953874     0.000023156616     0.000013534641
       6       -0.000008189616    -0.000005535815    -0.000003010361
       7       -0.000021092001    -0.000036220720    -0.000021588439
       8        0.000021192069     0.000036364135     0.000021248460
       9       -0.000005948443    -0.000023141264    -0.000013528373
      10        0.000008198074     0.000005510016     0.000003036889


*** tstop() called on hpc-m36-1-1.local at Mon Feb 24 07:45:01 2025
Module time:
	user time   =       0.17 seconds =       0.00 minutes
	system time =       0.01 seconds =       0.00 minutes
	total time  =          1 seconds =       0.02 minutes
Total time:
	user time   =      17.90 seconds =       0.30 minutes
	system time =       0.44 seconds =       0.01 minutes
	total time  =         19 seconds =       0.32 minutes

  Based on options and gradient (rms=3.93E-05), recommend projecting translations and projecting rotations.
hessian() will perform analytic frequency computation.
   => Libint2 <=

    Primary   basis highest AM E, G, H:  6, 6, 3
    Auxiliary basis highest AM E, G, H:  7, 7, 4
    Onebody   basis highest AM E, G, H:  -, -, -
    Solid Harmonics ordering:            Gaussian

*** tstart() called on hpc-m36-1-1.local
*** at Mon Feb 24 07:45:01 2025

   => Loading Basis Set <=

    Name: STO-3G
    Role: ORBITAL
    Keyword: BASIS
    atoms 1-4  entry C          line    61 file /gpfs/home/gdb20/.conda/envs/tutorial/share/psi4/basis/sto-3g.gbs 
    atoms 5-10 entry H          line    19 file /gpfs/home/gdb20/.conda/envs/tutorial/share/psi4/basis/sto-3g.gbs 


         ---------------------------------------------------------
                                   SCF
               by Justin Turney, Rob Parrish, Andy Simmonett
                          and Daniel G. A. Smith
                              RHF Reference
                        1 Threads,    953 MiB Core
         ---------------------------------------------------------

  ==> Geometry <==

    Molecular point group: c1
    Full point group: C1

    Geometry (in Angstrom), charge = 0, multiplicity = 1:

       Center              X                  Y                   Z               Mass       
    ------------   -----------------  -----------------  -----------------  -----------------
         C           -1.777342624945     0.235847253054    -0.400090654756    12.000000000000
         C           -0.568330431475     0.478290017365     0.052280079371    12.000000000000
         C            0.568329564685    -0.478291328466    -0.052277117125    12.000000000000
         C            1.777343280556    -0.235846259447     0.400088414205    12.000000000000
         H           -2.030458917150    -0.695428743570    -0.888655644991     1.007825032230
         H           -2.579633121133     0.954665101147    -0.306744509506     1.007825032230
         H           -0.345810392313     1.422045739133     0.537750254629     1.007825032230
         H            0.345810684316    -1.422045294719    -0.537751262385     1.007825032230
         H            2.030459479283     0.695429531449     0.888653881109     1.007825032230
         H            2.579634781465    -0.954662553095     0.306738688050     1.007825032230

  Running in c1 symmetry.

  Rotational constants: A =      1.41077  B =      0.14844  C =      0.13431 [cm^-1]
  Rotational constants: A =  42293.70194  B =   4450.07117  C =   4026.41830 [MHz]
  Nuclear repulsion =  104.096472974055075

  Charge       = 0
  Multiplicity = 1
  Electrons    = 30
  Nalpha       = 15
  Nbeta        = 15

  ==> Algorithm <==

  SCF Algorithm Type is DF.
  DIIS enabled.
  MOM disabled.
  Fractional occupation disabled.
  Guess Type is SAD.
  Energy threshold   = 1.00e-08
  Density threshold  = 1.00e-08
  Integral threshold = 1.00e-12

  ==> Primary Basis <==

  Basis Set: STO-3G
    Blend: STO-3G
    Number of shells: 18
    Number of basis functions: 26
    Number of Cartesian functions: 26
    Spherical Harmonics?: true
    Max angular momentum: 1

   => Loading Basis Set <=

    Name: (STO-3G AUX)
    Role: JKFIT
    Keyword: DF_BASIS_SCF
    atoms 1-4  entry C          line   198 file /gpfs/home/gdb20/.conda/envs/tutorial/share/psi4/basis/def2-universal-jkfit.gbs 
    atoms 5-10 entry H          line    18 file /gpfs/home/gdb20/.conda/envs/tutorial/share/psi4/basis/def2-universal-jkfit.gbs 

  ==> Integral Setup <==

  DFHelper Memory: AOs need 0.003 GiB; user supplied 0.698 GiB. 
  Using in-core AOs.

  ==> MemDFJK: Density-Fitted J/K Matrices <==

    J tasked:                   Yes
    K tasked:                   Yes
    wK tasked:                   No
    OpenMP threads:               1
    Memory [MiB]:               715
    Algorithm:                 Core
    Schwarz Cutoff:           1E-12
    Mask sparsity (%):       0.8876
    Fitting Condition:        1E-10

   => Auxiliary Basis Set <=

  Basis Set: (STO-3G AUX)
    Blend: DEF2-UNIVERSAL-JKFIT
    Number of shells: 136
    Number of basis functions: 408
    Number of Cartesian functions: 476
    Spherical Harmonics?: true
    Max angular momentum: 4

  Minimum eigenvalue in the overlap matrix is 1.7869332900E-01.
  Reciprocal condition number of the overlap matrix is 7.5305098132E-02.
    Using symmetric orthogonalization.

  ==> Pre-Iterations <==

  SCF Guess: Superposition of Atomic Densities via on-the-fly atomic UHF (no occupation information).

   -------------------------
    Irrep   Nso     Nmo    
   -------------------------
     A         26      26 
   -------------------------
    Total      26      26
   -------------------------

  ==> Iterations <==

                           Total Energy        Delta E     RMS |[F,P]|

   @DF-RHF iter SAD:  -149.88050770341488   -1.49881e+02   0.00000e+00 
   @DF-RHF iter   1:  -153.01302455226190   -3.13252e+00   3.43069e-03 ADIIS/DIIS
   @DF-RHF iter   2:  -153.02018188085432   -7.15733e-03   9.43108e-04 ADIIS/DIIS
   @DF-RHF iter   3:  -153.02076016825109   -5.78287e-04   4.14953e-04 ADIIS/DIIS
   @DF-RHF iter   4:  -153.02085006512763   -8.98969e-05   5.45620e-05 DIIS
   @DF-RHF iter   5:  -153.02085337891756   -3.31379e-06   8.53387e-06 DIIS
   @DF-RHF iter   6:  -153.02085347249769   -9.35801e-08   7.28608e-07 DIIS
   @DF-RHF iter   7:  -153.02085347296369   -4.66002e-10   8.58464e-08 DIIS
   @DF-RHF iter   8:  -153.02085347296844   -4.74643e-12   2.71927e-08 DIIS
   @DF-RHF iter   9:  -153.02085347296878   -3.41061e-13   3.27478e-09 DIIS
  Energy and wave function converged.


  ==> Post-Iterations <==

    Orbital Energies [Eh]
    ---------------------

    Doubly Occupied:                                                      

       1A    -11.032287     2A    -11.032068     3A    -11.018136  
       4A    -11.018125     5A     -1.035262     6A     -0.952486  
       7A     -0.768729     8A     -0.709220     9A     -0.596549  
      10A     -0.591528    11A     -0.504603    12A     -0.497875  
      13A     -0.432490    14A     -0.399023    15A     -0.276202  

    Virtual:                                                              

      16A      0.256001    17A      0.420290    18A      0.578325  
      19A      0.669762    20A      0.681672    21A      0.696407  
      22A      0.708536    23A      0.885640    24A      0.936265  
      25A      1.019111    26A      1.106689  

    Final Occupation by Irrep:
              A 
    DOCC [    15 ]
    NA   [    15 ]
    NB   [    15 ]

  @DF-RHF Final Energy:  -153.02085347296878

   => Energetics <=

    Nuclear Repulsion Energy =            104.0964729740550752
    One-Electron Energy =                -412.5054869979992418
    Two-Electron Energy =                 155.3881605509753854
    Total Energy =                       -153.0208534729687813

Computation Completed


Properties will be evaluated at   0.000000,   0.000000,   0.000000 [a0]

Properties computed using the SCF density matrix


 Multipole Moments:

 ------------------------------------------------------------------------------------
     Multipole            Electronic (a.u.)      Nuclear  (a.u.)        Total (a.u.)
 ------------------------------------------------------------------------------------

 L = 1.  Multiply by 2.5417464519 to convert [e a0] to [Debye]
 Dipole X            :         -0.0000021            0.0000024            0.0000002
 Dipole Y            :         -0.0000032            0.0000035            0.0000004
 Dipole Z            :          0.0000072           -0.0000081           -0.0000008
 Magnitude           :                                                    0.0000009

 ------------------------------------------------------------------------------------

*** tstop() called on hpc-m36-1-1.local at Mon Feb 24 07:45:01 2025
Module time:
	user time   =       0.54 seconds =       0.01 minutes
	system time =       0.01 seconds =       0.00 minutes
	total time  =          0 seconds =       0.00 minutes
Total time:
	user time   =      18.45 seconds =       0.31 minutes
	system time =       0.45 seconds =       0.01 minutes
	total time  =         19 seconds =       0.32 minutes

*** tstart() called on hpc-m36-1-1.local
*** at Mon Feb 24 07:45:01 2025


         ------------------------------------------------------------
                                   SCF HESS                          
                          Rob Parrish, Justin Turney,                
                       Andy Simmonett, and Alex Sokolov              
         ------------------------------------------------------------

  ==> Geometry <==

    Molecular point group: c1
    Full point group: C1

    Geometry (in Angstrom), charge = 0, multiplicity = 1:

       Center              X                  Y                   Z               Mass       
    ------------   -----------------  -----------------  -----------------  -----------------
         C           -1.777342624945     0.235847253054    -0.400090654756    12.000000000000
         C           -0.568330431475     0.478290017365     0.052280079371    12.000000000000
         C            0.568329564685    -0.478291328466    -0.052277117125    12.000000000000
         C            1.777343280556    -0.235846259447     0.400088414205    12.000000000000
         H           -2.030458917150    -0.695428743570    -0.888655644991     1.007825032230
         H           -2.579633121133     0.954665101147    -0.306744509506     1.007825032230
         H           -0.345810392313     1.422045739133     0.537750254629     1.007825032230
         H            0.345810684316    -1.422045294719    -0.537751262385     1.007825032230
         H            2.030459479283     0.695429531449     0.888653881109     1.007825032230
         H            2.579634781465    -0.954662553095     0.306738688050     1.007825032230

  Nuclear repulsion =  104.096472974055075

  ==> Basis Set <==

  Basis Set: STO-3G
    Blend: STO-3G
    Number of shells: 18
    Number of basis functions: 26
    Number of Cartesian functions: 26
    Spherical Harmonics?: true
    Max angular momentum: 1

  ==> DFJKGrad: Density-Fitted SCF Gradients <==

    Gradient:                    2
    J tasked:                  Yes
    K tasked:                  Yes
    wK tasked:                  No
    OpenMP threads:              1
    Integrals threads:           1
    Memory [MiB]:              715
    Schwarz Cutoff:          1E-12
    Fitting Condition:       1E-10

   => Auxiliary Basis Set <=

  Basis Set: (STO-3G AUX)
    Blend: DEF2-UNIVERSAL-JKFIT
    Number of shells: 136
    Number of basis functions: 408
    Number of Cartesian functions: 476
    Spherical Harmonics?: true
    Max angular momentum: 4

  DFHelper Memory: AOs need 0.003 GiB; user supplied 0.838 GiB. 
  Using in-core AOs.

  ==> MemDFJK: Density-Fitted J/K Matrices <==

    J tasked:                   Yes
    K tasked:                   Yes
    wK tasked:                   No
    OpenMP threads:               1
    Memory [MiB]:               858
    Algorithm:                 Core
    Schwarz Cutoff:           1E-12
    Mask sparsity (%):       0.8876
    Fitting Condition:        1E-10

   => Auxiliary Basis Set <=

  Basis Set: (STO-3G AUX)
    Blend: DEF2-UNIVERSAL-JKFIT
    Number of shells: 136
    Number of basis functions: 408
    Number of Cartesian functions: 476
    Spherical Harmonics?: true
    Max angular momentum: 4


   ==> Coupled-Perturbed RHF Solver <==

    Maxiter             =         100
    Convergence         =   1.000E-06
    Number of equations =          30
   -----------------------------------------------------
     Iter   Residual RMS      Max RMS  Remain  Time [s]
   -----------------------------------------------------
        1      4.488e-01    6.284e-01      30         0
        2      1.201e-01    1.680e-01      30         0
        3      3.136e-02    5.065e-02      30         0
        4      1.041e-02    1.606e-02      30         0
        5      2.843e-03    3.781e-03      30         0
        6      9.511e-04    1.771e-03      30         0
        7      1.834e-04    2.702e-04      30         0
        8      4.083e-05    6.961e-05      30         0
        9      8.660e-06    1.566e-05      30         0
       10      1.419e-06    2.344e-06      22         0
       11      4.175e-07    3.958e-07       0         0
  ## Total Hessian (Symmetry 0) ##
  Irrep: 1 Size: 30 x 30

                 1                   2                   3                   4                   5

    1     1.13940059485775    -0.02155312814880     0.26993737029776    -0.70189031365918    -0.11617680230816
    2    -0.02155312814880     0.79531802383689     0.27961245668415    -0.10254971894325    -0.18024714993959
    3     0.26993737029776     0.27961245668415     0.35839311961848    -0.22503750400633    -0.08144832449873
    4    -0.70189031365918    -0.10254971894325    -0.22503750400633     1.07688529375623     0.05511291631409
    5    -0.11617680230816    -0.18024714993959    -0.08144832449873     0.05511291631409     0.76451597243613
    6    -0.23113591457994    -0.07757209065846    -0.17249588669107     0.28025268349394     0.27788382497487
    7    -0.05077904642069     0.02848154185065    -0.00434115797198    -0.21982787900920     0.10484123948658
    8     0.00082094682530     0.01570457294306     0.00311240071875     0.10484105260863    -0.23281641390403
    9    -0.01671432931696     0.01098085716417     0.00942637230289     0.00841901579037    -0.03649433544947
   10     0.00666098400055     0.00440933231373     0.00377767975700    -0.05077914300059     0.00082082781313
   11     0.00440933414374    -0.00564288316267    -0.00141077586115     0.02848152413760     0.01570460387136
   12     0.00377765420934    -0.00141080162102     0.00075864132543    -0.00434106135176     0.00311242943670
   13    -0.10116446789314    -0.06893918788816    -0.04491572407814    -0.00106814073598    -0.03596346134637
   14    -0.07288266509465    -0.37282762821583    -0.16438936021542     0.00477381352585     0.00360730355758
   15    -0.04667891038573    -0.16326582710494    -0.13797665653598    -0.00007418852074    -0.01161254964488
   16    -0.29273463822698     0.19631346452265     0.01886675752532    -0.01686728135011     0.02859320382735
   17     0.20047933677329    -0.25851435794186    -0.03610210739145    -0.01435693680049     0.01335802538062
   18     0.02073221255908    -0.03728843379053    -0.06111210896541    -0.01395095257742     0.00981660724542
   19    -0.00203177695825    -0.03694150503350    -0.01956018659722    -0.09411986567644    -0.06405582133157
   20     0.00691271815109     0.00356456926410    -0.00030347969688    -0.06770436155513    -0.37183453316219
   21     0.00005679864922    -0.01277859919057     0.00293911563470    -0.04072630871367    -0.15886939845955
   22     0.00267806725775    -0.00002753944601     0.00097230103488     0.00777351616567     0.02932598698009
   23    -0.00214702390569     0.00190631062741     0.00059245932165    -0.00873651970944    -0.01392703242709
   24     0.00002421879530     0.00119535413442    -0.00024177969259    -0.00279410766781     0.00038694976833
   25     0.00021989664405    -0.00005567572063    -0.00010469762711     0.00170232022679    -0.00193297373788
   26     0.00045492898042    -0.00030667503086    -0.00023161148416    -0.00004920912576     0.00053760094971
   27     0.00012365822546    -0.00037693024182     0.00036708711273     0.00355463915756     0.00455327923062
   28    -0.00035930002758     0.00086241645610     0.00040516168699    -0.00180850713065    -0.00056511565304
   29    -0.00031764529346     0.00104521744464     0.00056834265163     0.00018743992577     0.00110162279028
   30    -0.00012275838954     0.00090401442316    -0.00005790422052    -0.00530221497086    -0.00732848271749

                 6                   7                   8                   9                  10

    1    -0.23113591457994    -0.05077904642069     0.00082094682530    -0.01671432931696     0.00666098400055
    2    -0.07757209065846     0.02848154185065     0.01570457294306     0.01098085716417     0.00440933231373
    3    -0.17249588669107    -0.00434115797198     0.00311240071875     0.00942637230289     0.00377767975700
    4     0.28025268349394    -0.21982787900920     0.10484105260863     0.00841901579037    -0.05077914300059
    5     0.27788382497487     0.10484123948658    -0.23281641390403    -0.03649433544947     0.00082082781313
    6     0.38238096795540     0.00841869521427    -0.03649415361009    -0.09849154699715    -0.01671410195188
    7     0.00841869521427     1.07688627653162     0.05511346815959     0.28025066441795    -0.70189153399926
    8    -0.03649415361009     0.05511346815959     0.76451510370930     0.27788481338157    -0.11617787164036
    9    -0.09849154699715     0.28025066441795     0.27788481338157     0.38238066318718    -0.23113383984571
   10    -0.01671410195188    -0.70189153399926    -0.11617787164036    -0.23113383984571     1.13940252178145
   11     0.01098073385497    -0.10255082373811    -0.18024739237463    -0.07757225600559    -0.02155173570122
   12     0.00942643872951    -0.22503519974454    -0.08144829168937    -0.17249428560664     0.26993382310309
   13    -0.01829585254890     0.00170231467949    -0.00193299662746     0.00271165088037     0.00021989397991
   14    -0.00002395562224    -0.00004919433425     0.00053761177780     0.00508898612162     0.00045492400005
   15     0.00148143030025     0.00355462413251     0.00455329158631    -0.00782275928769     0.00012366993124
   16     0.00526315109123    -0.00180847608610    -0.00056506407798    -0.00563843109863    -0.00035929479846
   17    -0.00240116638944     0.00018743338154     0.00110162511142    -0.00711458141037    -0.00031763465944
   18     0.01001869485641    -0.00530220282543    -0.00732849590680     0.01233876266922    -0.00012278297086
   19    -0.03909442627925     0.00777350823369     0.02932600993462     0.01423243008752     0.00267807062399
   20    -0.15990680408493    -0.00873656892375    -0.01392704675374    -0.01044078290749    -0.00214701685690
   21    -0.14007172649952    -0.00279402008725     0.00038694460936     0.00323561658859     0.00002420792355
   22     0.01423248336576    -0.09411967338916    -0.06405527405978    -0.03909443049872    -0.00203180486381
   23    -0.01044080572540    -0.06770384678420    -0.37183335389674    -0.15990755440193     0.00691265576449
   24     0.00323559078975    -0.04072653468015    -0.15887062209383    -0.14007305512828     0.00005700165107
   25     0.00271160968263    -0.00106814206728    -0.03596348311379    -0.01829595994703    -0.10116450494093
   26     0.00508901863358     0.00477378967285     0.00360723713729    -0.00002407054557    -0.07288261914339
   27    -0.00782275502371    -0.00007408460284    -0.01161231353896     0.00148150027966    -0.04667888829110
   28    -0.00563832766053    -0.01686734930663     0.02859321171251     0.00526322920542    -0.29273518653059
   29    -0.00711460150639    -0.01435703909994     0.01335805710501    -0.00240107573988     0.20047913782928
   30     0.01233879265608    -0.01395078398474     0.00981642722828     0.01001873225812     0.02073323017939

                11                  12                  13                  14                  15

    1     0.00440933414374     0.00377765420934    -0.10116446789314    -0.07288266509465    -0.04667891038573
    2    -0.00564288316267    -0.00141080162102    -0.06893918788816    -0.37282762821583    -0.16326582710494
    3    -0.00141077586115     0.00075864132543    -0.04491572407814    -0.16438936021542    -0.13797665653598
    4     0.02848152413760    -0.00434106135176    -0.00106814073598     0.00477381352585    -0.00007418852074
    5     0.01570460387136     0.00311242943670    -0.03596346134637     0.00360730355758    -0.01161254964488
    6     0.01098073385497     0.00942643872951    -0.01829585254890    -0.00002395562224     0.00148143030025
    7    -0.10255082373811    -0.22503519974454     0.00170231467949    -0.00004919433425     0.00355462413251
    8    -0.18024739237463    -0.08144829168937    -0.00193299662746     0.00053761177780     0.00455329158631
    9    -0.07757225600559    -0.17249428560664     0.00271165088037     0.00508898612162    -0.00782275928769
   10    -0.02155173570122     0.26993382310309     0.00021989397991     0.00045492400005     0.00012366993124
   11     0.79531720530267     0.27961356823430    -0.00005567298313    -0.00030667266276    -0.00037693444934
   12     0.27961356823430     0.35839176598898    -0.00010470090179    -0.00023161142125     0.00036708753950
   13    -0.00005567298313    -0.00010470090179     0.09298610031433     0.07922483083136     0.05230195953251
   14    -0.00030667266276    -0.00023161142125     0.07922483083136     0.37572166086142     0.17552543670028
   15    -0.00037693444934     0.00036708753950     0.05230195953251     0.17552543670028     0.12709058640086
   16     0.00086240990102     0.00040516629366     0.01156686924629    -0.01294183944003    -0.00357198348418
   17     0.00104520948990     0.00056834426286     0.02542359073824    -0.00920030251897     0.00142850646540
   18     0.00090402926059    -0.00005790174129     0.01358944701236    -0.00948384260533     0.00339519635657
   19    -0.00002753508364     0.00097230347037    -0.00424093247036     0.00174666640641    -0.00536427901554
   20     0.00190631928439     0.00059246244149     0.00188927463958     0.00258610421586    -0.00607264442924
   21     0.00119533595882    -0.00024179243310    -0.00530013699781    -0.00611291186272     0.01312052013418
   22    -0.03694152699602    -0.01956031068997    -0.00000890134358    -0.00019380406444    -0.00009358465038
   23     0.00356451614738    -0.00030362799680     0.00022953753035    -0.00007229073882     0.00002606102575
   24    -0.01277836552143     0.00293919738731     0.00009577562645    -0.00009435378306     0.00000043311272
   25    -0.06893916768749    -0.04491558490398     0.00000188368666    -0.00006691689199     0.00004832489883
   26    -0.37282739199021    -0.16438946716603    -0.00006691771269    -0.00032320373256    -0.00004137224194
   27    -0.16326603775137    -0.13797680644943     0.00004832589806    -0.00004137346723    -0.00027804939860
   28     0.19631319415685     0.01886791093142     0.00000538052312    -0.00006581500456    -0.00024563243235
   29    -0.25851351410028    -0.03610300454497     0.00019100289963     0.00027741742510    -0.00016396788607
   30    -0.03728929797573    -0.06111234493179    -0.00013074441096    -0.00023701391583     0.00062221132365

                16                  17                  18                  19                  20

    1    -0.29273463822698     0.20047933677329     0.02073221255908    -0.00203177695825     0.00691271815109
    2     0.19631346452265    -0.25851435794186    -0.03728843379053    -0.03694150503350     0.00356456926410
    3     0.01886675752532    -0.03610210739145    -0.06111210896541    -0.01956018659722    -0.00030347969688
    4    -0.01686728135011    -0.01435693680049    -0.01395095257742    -0.09411986567644    -0.06770436155513
    5     0.02859320382735     0.01335802538062     0.00981660724542    -0.06405582133157    -0.37183453316219
    6     0.00526315109123    -0.00240116638944     0.01001869485641    -0.03909442627925    -0.15990680408493
    7    -0.00180847608610     0.00018743338154    -0.00530220282543     0.00777350823369    -0.00873656892375
    8    -0.00056506407798     0.00110162511142    -0.00732849590680     0.02932600993462    -0.01392704675374
    9    -0.00563843109863    -0.00711458141037     0.01233876266922     0.01423243008752    -0.01044078290749
   10    -0.00035929479846    -0.00031763465944    -0.00012278297086     0.00267807062399    -0.00214701685690
   11     0.00086240990102     0.00104520948990     0.00090402926059    -0.00002753508364     0.00190631928439
   12     0.00040516629366     0.00056834426286    -0.00005790174129     0.00097230347037     0.00059246244149
   13     0.01156686924629     0.02542359073824     0.01358944701236    -0.00424093247036     0.00188927463958
   14    -0.01294183944003    -0.00920030251897    -0.00948384260533     0.00174666640641     0.00258610421586
   15    -0.00357198348418     0.00142850646540     0.00339519635657    -0.00536427901554    -0.00607264442924
   16     0.29917876830782    -0.21000874897966    -0.01831324010301     0.00135359888276    -0.00152178289631
   17    -0.21000874897966     0.25222655777343     0.03820145465578    -0.00093569071980    -0.00008348595546
   18    -0.01831324010301     0.03820145465578     0.04516954240882     0.00327151748843     0.00472696904284
   19     0.00135359888276    -0.00093569071980     0.00327151748843     0.09318030390616     0.06851618091424
   20    -0.00152178289631    -0.00008348595546     0.00472696904284     0.06851618091424     0.37827125191090
   21     0.00300902352315     0.00489378876071    -0.00857325845211     0.04643869386595     0.17184912739703
   22     0.00015952124779    -0.00037549306678    -0.00004688397837    -0.00474352831587     0.00294098402297
   23    -0.00037896522050     0.00026846982401     0.00013132291766     0.00294099013657    -0.00067935749954
   24    -0.00004845115507     0.00013232056975    -0.00022070160239    -0.00075558206409    -0.00060223516678
   25     0.00000538168784     0.00019100225576    -0.00013074178305    -0.00000889946546     0.00022953752593
   26    -0.00006581083222     0.00027742034067    -0.00023701847937    -0.00019380193067    -0.00007229162198
   27    -0.00024563782457    -0.00016396787625     0.00062220717845    -0.00009358843895     0.00002606363765
   28    -0.00049444903030    -0.00028685888958     0.00027362717447     0.00015952116155    -0.00037896499037
   29    -0.00028686678110    -0.00047916150263     0.00055740768204    -0.00037549329666     0.00026847008526
   30     0.00027364517876     0.00055740839189    -0.00158043270488    -0.00004688244825     0.00013132384377

                21                  22                  23                  24                  25

    1     0.00005679864922     0.00267806725775    -0.00214702390569     0.00002421879530     0.00021989664405
    2    -0.01277859919057    -0.00002753944601     0.00190631062741     0.00119535413442    -0.00005567572063
    3     0.00293911563470     0.00097230103488     0.00059245932165    -0.00024177969259    -0.00010469762711
    4    -0.04072630871367     0.00777351616567    -0.00873651970944    -0.00279410766781     0.00170232022679
    5    -0.15886939845955     0.02932598698009    -0.01392703242709     0.00038694976833    -0.00193297373788
    6    -0.14007172649952     0.01423248336576    -0.01044080572540     0.00323559078975     0.00271160968263
    7    -0.00279402008725    -0.09411967338916    -0.06770384678420    -0.04072653468015    -0.00106814206728
    8     0.00038694460936    -0.06405527405978    -0.37183335389674    -0.15887062209383    -0.03596348311379
    9     0.00323561658859    -0.03909443049872    -0.15990755440193    -0.14007305512828    -0.01829595994703
   10     0.00002420792355    -0.00203180486381     0.00691265576449     0.00005700165107    -0.10116450494093
   11     0.00119533595882    -0.03694152699602     0.00356451614738    -0.01277836552143    -0.06893916768749
   12    -0.00024179243310    -0.01956031068997    -0.00030362799680     0.00293919738731    -0.04491558490398
   13    -0.00530013699781    -0.00000890134358     0.00022953753035     0.00009577562645     0.00000188368666
   14    -0.00611291186272    -0.00019380406444    -0.00007229073882    -0.00009435378306    -0.00006691689199
   15     0.01312052013418    -0.00009358465038     0.00002606102575     0.00000043311272     0.00004832489883
   16     0.00300902352315     0.00015952124779    -0.00037896522050    -0.00004845115507     0.00000538168784
   17     0.00489378876071    -0.00037549306678     0.00026846982401     0.00013232056975     0.00019100225576
   18    -0.00857325845211    -0.00004688397837     0.00013132291766    -0.00022070160239    -0.00013074178305
   19     0.04643869386595    -0.00474352831587     0.00294099013657    -0.00075558206409    -0.00000889946546
   20     0.17184912739703     0.00294098402297    -0.00067935749954    -0.00060223516678     0.00022953752593
   21     0.12775887704557    -0.00075558020989    -0.00060225207529     0.00205291733436     0.00009577402793
   22    -0.00075558020989     0.09318016833129     0.06851570830209     0.04643873012774    -0.00424098331563
   23    -0.00060225207529     0.06851570830209     0.37827011421019     0.17185008576060     0.00188924404826
   24     0.00205291733436     0.04643873012774     0.17185008576060     0.12776011127725    -0.00530002590220
   25     0.00009577402793    -0.00424098331563     0.00188924404826    -0.00530002590220     0.09298616731648
   26    -0.00009435432301     0.00174663971621     0.00258614012206    -0.00611292340974     0.07922482216401
   27     0.00000043230830    -0.00536421678546    -0.00607271902144     0.01312053338834     0.05230183000374
   28    -0.00004845190148     0.00135361815255    -0.00152178015394     0.00300897519742     0.01156688028932
   29     0.00013231914352    -0.00093568139052    -0.00008351633233     0.00489378977045     0.02542361112313
   30    -0.00022070165327     0.00327149234206     0.00472703031120    -0.00857324682991     0.01358947148949

                26                  27                  28                  29                  30

    1     0.00045492898042     0.00012365822546    -0.00035930002758    -0.00031764529346    -0.00012275838954
    2    -0.00030667503086    -0.00037693024182     0.00086241645610     0.00104521744464     0.00090401442316
    3    -0.00023161148416     0.00036708711273     0.00040516168699     0.00056834265163    -0.00005790422052
    4    -0.00004920912576     0.00355463915756    -0.00180850713065     0.00018743992577    -0.00530221497086
    5     0.00053760094971     0.00455327923062    -0.00056511565304     0.00110162279028    -0.00732848271749
    6     0.00508901863358    -0.00782275502371    -0.00563832766053    -0.00711460150639     0.01233879265608
    7     0.00477378967285    -0.00007408460284    -0.01686734930663    -0.01435703909994    -0.01395078398474
    8     0.00360723713729    -0.01161231353896     0.02859321171251     0.01335805710501     0.00981642722828
    9    -0.00002407054557     0.00148150027966     0.00526322920542    -0.00240107573988     0.01001873225812
   10    -0.07288261914339    -0.04667888829110    -0.29273518653059     0.20047913782928     0.02073323017939
   11    -0.37282739199021    -0.16326603775137     0.19631319415685    -0.25851351410028    -0.03728929797573
   12    -0.16438946716603    -0.13797680644943     0.01886791093142    -0.03610300454497    -0.06111234493179
   13    -0.00006691771269     0.00004832589806     0.00000538052312     0.00019100289963    -0.00013074441096
   14    -0.00032320373256    -0.00004137346723    -0.00006581500456     0.00027741742510    -0.00023701391583
   15    -0.00004137224194    -0.00027804939860    -0.00024563243235    -0.00016396788607     0.00062221132365
   16    -0.00006581083222    -0.00024563782457    -0.00049444903030    -0.00028686678110     0.00027364517876
   17     0.00027742034067    -0.00016396787625    -0.00028685888958    -0.00047916150263     0.00055740839189
   18    -0.00023701847937     0.00062220717845     0.00027362717447     0.00055740768204    -0.00158043270488
   19    -0.00019380193067    -0.00009358843895     0.00015952116155    -0.00037549329666    -0.00004688244825
   20    -0.00007229162198     0.00002606363765    -0.00037896499037     0.00026847008526     0.00013132384377
   21    -0.00009435432301     0.00000043230830    -0.00004845190148     0.00013231914352    -0.00022070165327
   22     0.00174663971621    -0.00536421678546     0.00135361815255    -0.00093568139052     0.00327149234206
   23     0.00258614012206    -0.00607271902144    -0.00152178015394    -0.00008351633233     0.00472703031120
   24    -0.00611292340974     0.01312053338834     0.00300897519742     0.00489378977045    -0.00857324682991
   25     0.07922482216401     0.05230183000374     0.01156688028932     0.02542361112313     0.01358947148949
   26     0.37572142856334     0.17552559688369    -0.01294182156886    -0.00920026482596    -0.00948379786287
   27     0.17552559688369     0.12709070376550    -0.00357203727245     0.00142840213195     0.00339514682562
   28    -0.01294182156886    -0.00357203727245     0.29917939213833    -0.21000846615560    -0.01831445500777
   29    -0.00920026482596     0.00142840213195    -0.21000846615560     0.25222567193941     0.03820238827188
   30    -0.00948379786287     0.00339514682562    -0.01831445500777     0.03820238827188     0.04516974724537




*** tstop() called on hpc-m36-1-1.local at Mon Feb 24 07:45:08 2025
Module time:
	user time   =       6.83 seconds =       0.11 minutes
	system time =       0.07 seconds =       0.00 minutes
	total time  =          7 seconds =       0.12 minutes
Total time:
	user time   =      25.28 seconds =       0.42 minutes
	system time =       0.52 seconds =       0.01 minutes
	total time  =         26 seconds =       0.43 minutes


  ==> Harmonic Vibrational Analysis <==

  non-mass-weighted Hessian:       Symmetric? True   Hermitian? True   Lin Dep Dim?  0 (0)
  projection of translations (True) and rotations (True) removed 6 degrees of freedom (6)
  total projector:                 Symmetric? True   Hermitian? True   Lin Dep Dim?  6 (6)
  mass-weighted Hessian:           Symmetric? True   Hermitian? True   Lin Dep Dim?  0 (0)
  pre-proj  low-frequency mode:    0.0000i [cm^-1]
  pre-proj  low-frequency mode:    0.0000i [cm^-1]
  pre-proj  low-frequency mode:    0.0082  [cm^-1]
  pre-proj  low-frequency mode:    0.0174  [cm^-1]
  pre-proj  low-frequency mode:    3.0093  [cm^-1]
  pre-proj  low-frequency mode:    5.1173  [cm^-1]
  pre-proj  all modes:['12.3290i' '0.0144i' '0.0082' '0.0174' '3.0093' '5.1173' '152.0615'
 '332.1008' '567.5167' '608.7036' '911.2517' '1016.8879' '1146.4694'
 '1151.3454' '1155.2451' '1225.5629' '1263.9132' '1395.1680' '1525.5181'
 '1538.7266' '1673.8934' '1736.1723' '1999.5377' '2070.4976' '3650.1502'
 '3654.6737' '3712.7763' '3715.9788' '3811.8535' '3811.9193']
  projected mass-weighted Hessian: Symmetric? True   Hermitian? True   Lin Dep Dim?  6 (6)
  post-proj low-frequency mode:    0.0000i [cm^-1] (TR)
  post-proj low-frequency mode:    0.0000i [cm^-1] (TR)
  post-proj low-frequency mode:    0.0000  [cm^-1] (TR)
  post-proj low-frequency mode:    0.0000  [cm^-1] (TR)
  post-proj low-frequency mode:    0.0000  [cm^-1] (TR)
  post-proj low-frequency mode:    0.0000  [cm^-1] (TR)
  post-proj  all modes:['0.0000i' '0.0000i' '0.0000' '0.0000' '0.0000' '0.0000' '152.0615'
 '332.1008' '567.5167' '608.7036' '911.2516' '1016.8879' '1146.4694'
 '1151.3454' '1155.2451' '1225.5629' '1263.9132' '1395.1680' '1525.5181'
 '1538.7266' '1673.8934' '1736.1723' '1999.5377' '2070.4976' '3650.1502'
 '3654.6737' '3712.7763' '3715.9788' '3811.8535' '3811.9193']

  Vibration                       7                   8                   9           
  Freq [cm^-1]                 152.0615            332.1008            567.5167       
  Irrep                           A                   A                   A           
  Reduced mass [u]              2.5017              2.1472              2.7066        
  Force const [mDyne/A]         0.0341              0.1395              0.5136        
  Turning point v=0 [a0]        0.5626              0.4109              0.2800        
  RMS dev v=0 [a0 u^1/2]        0.6292              0.4258              0.3257        
  IR activ [km/mol]             0.0485              1.5491              0.0000        
  Char temp [K]                218.7826            477.8192            816.5301       
  ----------------------------------------------------------------------------------
      1   C                0.04  0.07 -0.15    0.05 -0.13 -0.04    0.21 -0.05  0.04   
      2   C               -0.05 -0.08  0.17   -0.05  0.16  0.06    0.13  0.09  0.08   
      3   C               -0.05 -0.08  0.17   -0.05  0.16  0.06   -0.13 -0.09 -0.08   
      4   C                0.04  0.07 -0.15    0.05 -0.13 -0.04   -0.21  0.05 -0.04   
      5   H                0.11  0.18 -0.39    0.36 -0.24 -0.00    0.50 -0.15  0.08   
      6   H                0.06  0.09 -0.20   -0.16 -0.34 -0.20    0.02 -0.24 -0.10   
      7   H               -0.11 -0.17  0.38   -0.20  0.21  0.04    0.25  0.05  0.09   
      8   H               -0.11 -0.17  0.38   -0.20  0.21  0.04   -0.25 -0.05 -0.09   
      9   H                0.11  0.18 -0.39    0.36 -0.24 -0.00   -0.50  0.15 -0.08   
     10   H                0.06  0.09 -0.20   -0.16 -0.34 -0.20   -0.02  0.24  0.10   

  Vibration                       10                  11                  12          
  Freq [cm^-1]                 608.7036            911.2516           1016.8879       
  Irrep                           A                   A                   A           
  Reduced mass [u]              1.1075              1.7532              1.8891        
  Force const [mDyne/A]         0.2418              0.8578              1.1510        
  Turning point v=0 [a0]        0.4226              0.2745              0.2503        
  RMS dev v=0 [a0 u^1/2]        0.3145              0.2570              0.2433        
  IR activ [km/mol]             3.4723              0.0000              0.0000        
  Char temp [K]                875.7890           1311.0882           1463.0753       
  ----------------------------------------------------------------------------------
      1   C               -0.01 -0.01  0.02    0.00  0.01 -0.01   -0.11  0.07 -0.00   
      2   C                0.02  0.02 -0.06   -0.05 -0.07  0.16   -0.08  0.12  0.03   
      3   C                0.02  0.02 -0.06    0.05  0.07 -0.16    0.08 -0.12 -0.03   
      4   C               -0.01 -0.01  0.02   -0.00 -0.01  0.01    0.11 -0.07  0.00   
      5   H                0.09  0.15 -0.33   -0.08 -0.12  0.27    0.33 -0.09  0.05   
      6   H               -0.12 -0.20  0.44    0.15  0.23 -0.52   -0.44 -0.27 -0.25   
      7   H               -0.08 -0.13  0.30    0.04  0.07 -0.15    0.01  0.11  0.05   
      8   H               -0.08 -0.13  0.30   -0.04 -0.07  0.15   -0.01 -0.11 -0.05   
      9   H                0.09  0.15 -0.33    0.08  0.12 -0.27   -0.33  0.09 -0.05   
     10   H               -0.12 -0.20  0.44   -0.15 -0.23  0.52    0.44  0.27  0.25   

  Vibration                       13                  14                  15          
  Freq [cm^-1]                1146.4694           1151.3454           1155.2451       
  Irrep                           A                   A                   A           
  Reduced mass [u]              1.3448              1.3578              1.1908        
  Force const [mDyne/A]         1.0414              1.0604              0.9363        
  Turning point v=0 [a0]        0.2794              0.2775              0.2958        
  RMS dev v=0 [a0 u^1/2]        0.2291              0.2287              0.2283        
  IR activ [km/mol]            32.7287              0.0000              1.1717        
  Char temp [K]               1649.5142           1656.5297           1662.1405       
  ----------------------------------------------------------------------------------
      1   C                0.03  0.05 -0.10    0.03  0.05 -0.11   -0.04  0.07  0.02   
      2   C               -0.01 -0.01  0.03   -0.01 -0.02  0.04    0.00 -0.03 -0.01   
      3   C               -0.01 -0.01  0.03    0.01  0.02 -0.04    0.00 -0.03 -0.01   
      4   C                0.03  0.05 -0.10   -0.03 -0.05  0.11   -0.04  0.07  0.02   
      5   H               -0.13 -0.20  0.44   -0.13 -0.21  0.47    0.39 -0.07  0.08   
      6   H               -0.12 -0.19  0.43   -0.11 -0.18  0.40   -0.32 -0.22 -0.19   
      7   H               -0.00 -0.01  0.01   -0.01 -0.01  0.02    0.35 -0.14  0.04   
      8   H               -0.00 -0.01  0.01    0.01  0.01 -0.02    0.35 -0.14  0.04   
      9   H               -0.13 -0.20  0.44    0.13  0.21 -0.47    0.39 -0.07  0.08   
     10   H               -0.12 -0.19  0.43    0.11  0.18 -0.40   -0.32 -0.22 -0.19   

  Vibration                       16                  17                  18          
  Freq [cm^-1]                1225.5629           1263.9132           1395.1680       
  Irrep                           A                   A                   A           
  Reduced mass [u]              1.1201              1.0964              1.8294        
  Force const [mDyne/A]         0.9912              1.0319              2.0980        
  Turning point v=0 [a0]        0.2962              0.2948              0.2172        
  RMS dev v=0 [a0 u^1/2]        0.2216              0.2182              0.2077        
  IR activ [km/mol]             0.0000              7.6859              0.0000        
  Char temp [K]               1763.3121           1818.4896           2007.3361       
  ----------------------------------------------------------------------------------
      1   C               -0.00 -0.01  0.01   -0.00 -0.00  0.01    0.04 -0.06 -0.01   
      2   C                0.02  0.03 -0.06    0.02  0.02 -0.06   -0.05  0.16  0.06   
      3   C               -0.02 -0.03  0.06    0.02  0.02 -0.06    0.05 -0.16 -0.06   
      4   C                0.00  0.01 -0.01   -0.00 -0.00  0.01   -0.04  0.06  0.01   
      5   H               -0.08 -0.12  0.27   -0.08 -0.12  0.28   -0.26  0.05 -0.05   
      6   H                0.07  0.11 -0.24    0.06  0.10 -0.23    0.22  0.13  0.12   
      7   H               -0.14 -0.23  0.51   -0.14 -0.23  0.51   -0.47  0.31  0.01   
      8   H                0.14  0.23 -0.51   -0.14 -0.23  0.51    0.47 -0.31 -0.01   
      9   H                0.08  0.12 -0.27   -0.08 -0.12  0.28    0.26 -0.05  0.05   
     10   H               -0.07 -0.11  0.24    0.06  0.10 -0.23   -0.22 -0.13 -0.12   

  Vibration                       19                  20                  21          
  Freq [cm^-1]                1525.5181           1538.7266           1673.8934       
  Irrep                           A                   A                   A           
  Reduced mass [u]              1.2775              1.3219              1.2014        
  Force const [mDyne/A]         1.7517              1.8440              1.9834        
  Turning point v=0 [a0]        0.2486              0.2433              0.2447        
  RMS dev v=0 [a0 u^1/2]        0.1986              0.1978              0.1896        
  IR activ [km/mol]             7.5466              0.0000              0.9407        
  Char temp [K]               2194.8810           2213.8849           2408.3599       
  ----------------------------------------------------------------------------------
      1   C               -0.02 -0.07 -0.04   -0.04 -0.07 -0.04    0.01 -0.01  0.00   
      2   C               -0.01  0.07  0.03    0.01  0.07  0.04   -0.09  0.00 -0.03   
      3   C               -0.01  0.07  0.03   -0.01 -0.07 -0.04   -0.09  0.00 -0.03   
      4   C               -0.02 -0.07 -0.04    0.04  0.07  0.04    0.01 -0.01  0.00   
      5   H               -0.27  0.01 -0.07   -0.38  0.04 -0.09    0.43 -0.14  0.06   
      6   H                0.07  0.04  0.04   -0.02 -0.03 -0.02    0.34  0.30  0.23   
      7   H                0.61 -0.11  0.12    0.56 -0.09  0.12    0.11 -0.07 -0.00   
      8   H                0.61 -0.11  0.12   -0.56  0.09 -0.12    0.11 -0.07 -0.00   
      9   H               -0.27  0.01 -0.07    0.38 -0.04  0.09    0.43 -0.14  0.06   
     10   H                0.07  0.04  0.04    0.02  0.03  0.02    0.34  0.30  0.23   

  Vibration                       22                  23                  24          
  Freq [cm^-1]                1736.1723           1999.5377           2070.4976       
  Irrep                           A                   A                   A           
  Reduced mass [u]              1.2050              3.9272              4.8129        
  Force const [mDyne/A]         2.1401              9.2511             12.1564        
  Turning point v=0 [a0]        0.2399              0.1238              0.1099        
  RMS dev v=0 [a0 u^1/2]        0.1862              0.1735              0.1705        
  IR activ [km/mol]             0.0000              0.1802              0.0000        
  Char temp [K]               2497.9653           2876.8895           2978.9850       
  ----------------------------------------------------------------------------------
      1   C               -0.04 -0.02 -0.02    0.25  0.04  0.09   -0.23 -0.04 -0.08   
      2   C               -0.08  0.03 -0.01   -0.23 -0.02 -0.07    0.32 -0.00  0.09   
      3   C                0.08 -0.03  0.01   -0.23 -0.02 -0.07   -0.32  0.00 -0.09   
      4   C                0.04  0.02  0.02    0.25  0.04  0.09    0.23  0.04  0.08   
      5   H                0.39 -0.16  0.04   -0.32  0.28  0.03    0.22 -0.25 -0.05   
      6   H                0.31  0.33  0.24   -0.05 -0.34 -0.17   -0.00  0.27  0.12   
      7   H                0.21 -0.06  0.03    0.11 -0.17 -0.04   -0.28  0.22  0.02   
      8   H               -0.21  0.06 -0.03    0.11 -0.17 -0.04    0.28 -0.22 -0.02   
      9   H               -0.39  0.16 -0.04   -0.32  0.28  0.03   -0.22  0.25  0.05   
     10   H               -0.31 -0.33 -0.24   -0.05 -0.34 -0.17    0.00 -0.27 -0.12   

  Vibration                       25                  26                  27          
  Freq [cm^-1]                3650.1502           3654.6737           3712.7763       
  Irrep                           A                   A                   A           
  Reduced mass [u]              1.0659              1.0660              1.1038        
  Force const [mDyne/A]         8.3672              8.3891              8.9646        
  Turning point v=0 [a0]        0.1759              0.1758              0.1714        
  RMS dev v=0 [a0 u^1/2]        0.1284              0.1283              0.1273        
  IR activ [km/mol]            100.6026             0.0000              0.0000        
  Char temp [K]               5251.7534           5258.2618           5341.8584       
  ----------------------------------------------------------------------------------
      1   C               -0.05 -0.01 -0.02   -0.05 -0.01 -0.02    0.01  0.01  0.01   
      2   C                0.00 -0.01 -0.00    0.00 -0.01 -0.00   -0.02 -0.05 -0.03   
      3   C                0.00 -0.01 -0.00   -0.00  0.01  0.00    0.02  0.05  0.03   
      4   C               -0.05 -0.01 -0.02    0.05  0.01  0.02   -0.01 -0.01 -0.01   
      5   H                0.11  0.42  0.22    0.11  0.42  0.22   -0.03 -0.12 -0.06   
      6   H                0.35 -0.32 -0.04    0.35 -0.32 -0.04   -0.07  0.06  0.01   
      7   H                0.04  0.17  0.09    0.04  0.14  0.07    0.14  0.59  0.31   
      8   H                0.04  0.17  0.09   -0.04 -0.14 -0.07   -0.14 -0.59 -0.31   
      9   H                0.11  0.42  0.22   -0.11 -0.42 -0.22    0.03  0.12  0.06   
     10   H                0.35 -0.32 -0.04   -0.35  0.32  0.04    0.07 -0.06 -0.01   

  Vibration                       28                  29                  30          
  Freq [cm^-1]                3715.9788           3811.8535           3811.9193       
  Irrep                           A                   A                   A           
  Reduced mass [u]              1.0998              1.1186              1.1189        
  Force const [mDyne/A]         8.9476              9.5759              9.5791        
  Turning point v=0 [a0]        0.1716              0.1680              0.1680        
  RMS dev v=0 [a0 u^1/2]        0.1273              0.1257              0.1257        
  IR activ [km/mol]             9.0912              0.0684              0.0000        
  Char temp [K]               5346.4662           5484.4085           5484.5031       
  ----------------------------------------------------------------------------------
      1   C                0.02  0.01  0.01    0.02 -0.06 -0.02    0.02 -0.06 -0.02   
      2   C               -0.02 -0.05 -0.03   -0.00 -0.00 -0.00   -0.00 -0.00 -0.00   
      3   C               -0.02 -0.05 -0.03   -0.00 -0.00 -0.00    0.00  0.00  0.00   
      4   C                0.02  0.01  0.01    0.02 -0.06 -0.02   -0.02  0.06  0.02   
      5   H               -0.03 -0.14 -0.07    0.11  0.41  0.22    0.11  0.42  0.22   
      6   H               -0.08  0.07  0.01   -0.38  0.34  0.04   -0.38  0.34  0.04   
      7   H                0.14  0.59  0.30    0.01  0.03  0.02    0.01  0.03  0.02   
      8   H                0.14  0.59  0.30    0.01  0.03  0.02   -0.01 -0.03 -0.02   
      9   H               -0.03 -0.14 -0.07    0.11  0.42  0.22   -0.11 -0.42 -0.22   
     10   H               -0.08  0.07  0.01   -0.38  0.34  0.04    0.38 -0.34 -0.04   

  ==> Thermochemistry Components <==

  Entropy, S
    Electronic S                             0.000 [cal/(mol K)]        0.000 [J/(mol K)]       0.00000000 [mEh/K] (multiplicity = 1)
    Translational S                         37.884 [cal/(mol K)]      158.506 [J/(mol K)]       0.06037176 [mEh/K] (mol. weight = 54.0470 [u], P = 101325.00 [Pa])
    Rotational S                            23.565 [cal/(mol K)]       98.598 [J/(mol K)]       0.03755397 [mEh/K] (symmetry no. = 1)
    Vibrational S                            5.333 [cal/(mol K)]       22.313 [J/(mol K)]       0.00849839 [mEh/K]
  Total S                                   66.782 [cal/(mol K)]      279.416 [J/(mol K)]       0.10642412 [mEh/K]
  Correction S                               0.000 [cal/(mol K)]        0.000 [J/(mol K)]       0.00000000 [mEh/K]

  Constant volume heat capacity, Cv
    Electronic Cv                            0.000 [cal/(mol K)]        0.000 [J/(mol K)]       0.00000000 [mEh/K]
    Translational Cv                         2.981 [cal/(mol K)]       12.472 [J/(mol K)]       0.00475022 [mEh/K]
    Rotational Cv                            2.981 [cal/(mol K)]       12.472 [J/(mol K)]       0.00475022 [mEh/K]
    Vibrational Cv                           7.878 [cal/(mol K)]       32.963 [J/(mol K)]       0.01255490 [mEh/K]
  Total Cv                                  13.840 [cal/(mol K)]       57.906 [J/(mol K)]       0.02205534 [mEh/K]
  Correction Cv                              0.000 [cal/(mol K)]        0.000 [J/(mol K)]       0.00000000 [mEh/K]

  Constant pressure heat capacity, Cp
    Electronic Cp                            0.000 [cal/(mol K)]        0.000 [J/(mol K)]       0.00000000 [mEh/K]
    Translational Cp                         4.968 [cal/(mol K)]       20.786 [J/(mol K)]       0.00791703 [mEh/K]
    Rotational Cp                            2.981 [cal/(mol K)]       12.472 [J/(mol K)]       0.00475022 [mEh/K]
    Vibrational Cp                           7.878 [cal/(mol K)]       32.963 [J/(mol K)]       0.01255490 [mEh/K]
  Total Cp                                  15.827 [cal/(mol K)]       66.221 [J/(mol K)]       0.02522215 [mEh/K]
  Correction Cp                              0.000 [cal/(mol K)]        0.000 [J/(mol K)]       0.00000000 [mEh/K]

  ==> Thermochemistry Energy Analysis <==

  Raw electronic energy, E_e
  Total E_e, Electronic energy at well bottom                                          -153.02085347 [Eh]

  Zero-point vibrational energy, ZPVE = Sum_i omega_i / 2,  E_0 = E_e + ZPVE
    Vibrational ZPVE                        62.655 [kcal/mol]      262.149 [kJ/mol]       0.09984736 [Eh]       21913.962 [cm^-1]
  Correction ZPVE to E_e                    62.655 [kcal/mol]      262.149 [kJ/mol]       0.09984736 [Eh]       21913.962 [cm^-1]
  Total E_0, Enthalpy at 0 [K]                                                         -152.92100612 [Eh]
  *** Absolute enthalpy, not an enthalpy of formation ***

  Thermal (internal) energy, E (includes ZPVE and finite-temperature corrections)
    Electronic contrib to E beyond E_e       0.000 [kcal/mol]        0.000 [kJ/mol]       0.00000000 [Eh]
    Translational contrib to E               0.889 [kcal/mol]        3.718 [kJ/mol]       0.00141628 [Eh]
    Rotational contrib to E                  0.889 [kcal/mol]        3.718 [kJ/mol]       0.00141628 [Eh]
    Vibrational contrib to E                63.629 [kcal/mol]      266.224 [kJ/mol]       0.10139947 [Eh]
  Correction E                              65.407 [kcal/mol]      273.661 [kJ/mol]       0.10423203 [Eh]
  Total E, Thermal (internal) energy at  298.15 [K]                                    -152.91662144 [Eh]

  Enthalpy, H_trans = E_trans + k_B * T = E_trans + P * V
    Electronic contrib to H beyond E_e       0.000 [kcal/mol]        0.000 [kJ/mol]       0.00000000 [Eh]
    Translational contrib to H               1.481 [kcal/mol]        6.197 [kJ/mol]       0.00236046 [Eh]
    Rotational contrib to H                  0.889 [kcal/mol]        3.718 [kJ/mol]       0.00141628 [Eh]
    Vibrational contrib to H                63.629 [kcal/mol]      266.224 [kJ/mol]       0.10139947 [Eh]
  Correction H                              65.999 [kcal/mol]      276.140 [kJ/mol]       0.10517621 [Eh]
  Total H, Enthalpy at  298.15 [K]                                                     -152.91567726 [Eh]
  *** Absolute enthalpy, not an enthalpy of formation ***

  Gibbs free energy, G = H - T * S
    Electronic contrib to G beyond E_e       0.000 [kcal/mol]        0.000 [kJ/mol]       0.00000000 [Eh]
    Translational contrib to G              -9.814 [kcal/mol]      -41.061 [kJ/mol]      -0.01563938 [Eh]
    Rotational contrib to G                 -6.137 [kcal/mol]      -25.679 [kJ/mol]      -0.00978044 [Eh]
    Vibrational contrib to G                62.039 [kcal/mol]      259.572 [kJ/mol]       0.09886568 [Eh]
  Correction G                              46.088 [kcal/mol]      192.832 [kJ/mol]       0.07344586 [Eh]
  Total G, Gibbs energy at  298.15 [K]                                                 -152.94740761 [Eh]
  *** Absolute Gibbs energy, not a free energy of formation ***

