
    -----------------------------------------------------------------------
          Psi4: An Open-Source Ab Initio Electronic Structure Package
                               Psi4 1.9.1 release

                         Git: Rev {} zzzzzzz 


    D. G. A. Smith, L. A. Burns, A. C. Simmonett, R. M. Parrish,
    M. C. Schieber, R. Galvelis, P. Kraus, H. Kruse, R. Di Remigio,
    A. Alenaizan, A. M. James, S. Lehtola, J. P. Misiewicz, M. Scheurer,
    R. A. Shaw, J. B. Schriber, Y. Xie, Z. L. Glick, D. A. Sirianni,
    J. S. O'Brien, J. M. Waldrop, A. Kumar, E. G. Hohenstein,
    B. P. Pritchard, B. R. Brooks, H. F. Schaefer III, A. Yu. Sokolov,
    K. Patkowski, A. E. DePrince III, U. Bozkaya, R. A. King,
    F. A. Evangelista, J. M. Turney, T. D. Crawford, C. D. Sherrill,
    J. Chem. Phys. 152(18) 184108 (2020). https://doi.org/10.1063/5.0006002

                            Additional Code Authors
    E. T. Seidl, C. L. Janssen, E. F. Valeev, M. L. Leininger,
    J. F. Gonthier, R. M. Richard, H. R. McAlexander, M. Saitow, X. Wang,
    P. Verma, M. H. Lechner, A. Jiang, S. Behnle, A. G. Heide,
    M. F. Herbst, and D. L. Poole

             Previous Authors, Complete List of Code Contributors,
                       and Citations for Specific Modules
    https://github.com/psi4/psi4/blob/master/codemeta.json
    https://github.com/psi4/psi4/graphs/contributors
    http://psicode.org/psi4manual/master/introduction.html#citing-psifour

    -----------------------------------------------------------------------


    Psi4 started on: Monday, 24 February 2025 03:46AM

    Process ID: 2743729
    Host:       hpc-m36-1-1.local
    PSIDATADIR: /gpfs/home/gdb20/.conda/envs/CHM4411L/share/psi4
    Memory:     500.0 MiB
    Threads:    1
    
  Memory set to 953.674 MiB by Python driver.

Scratch directory: /tmp/
gradient() will perform analytic gradient computation.
   => Libint2 <=

    Primary   basis highest AM E, G, H:  6, 6, 3
    Auxiliary basis highest AM E, G, H:  7, 7, 4
    Onebody   basis highest AM E, G, H:  -, -, -
    Solid Harmonics ordering:            Gaussian

*** tstart() called on hpc-m36-1-1.local
*** at Mon Feb 24 03:46:56 2025

   => Loading Basis Set <=

    Name: STO-3G
    Role: ORBITAL
    Keyword: BASIS
    atoms 1-2 entry C          line    61 file /gpfs/home/gdb20/.conda/envs/CHM4411L/share/psi4/basis/sto-3g.gbs 
    atoms 3-6 entry H          line    19 file /gpfs/home/gdb20/.conda/envs/CHM4411L/share/psi4/basis/sto-3g.gbs 


         ---------------------------------------------------------
                                   SCF
               by Justin Turney, Rob Parrish, Andy Simmonett
                          and Daniel G. A. Smith
                              RHF Reference
                        1 Threads,    953 MiB Core
         ---------------------------------------------------------

  ==> Geometry <==

    Molecular point group: c1
    Full point group: C1

    Geometry (in Angstrom), charge = 0, multiplicity = 1:

       Center              X                  Y                   Z               Mass       
    ------------   -----------------  -----------------  -----------------  -----------------
         C            0.658979035954     0.104365392139    -0.030595960697    12.000000000000
         C           -0.658978964046    -0.104365607861     0.030597039303    12.000000000000
         H            1.345337035954    -0.709003607861    -0.244228960697     1.007825032230
         H            1.077448035954     1.092711392139     0.131738039303     1.007825032230
         H           -1.345337964046     0.709001392139     0.244229039303     1.007825032230
         H           -1.077447964046    -1.092706607861    -0.131750960697     1.007825032230

  Running in c1 symmetry.

  Rotational constants: A =      4.83532  B =      1.00445  C =      0.83168 [cm^-1]
  Rotational constants: A = 144959.16916  B =  30112.70703  C =  24933.26220 [MHz]
  Nuclear repulsion =   33.319967272629476

  Charge       = 0
  Multiplicity = 1
  Electrons    = 16
  Nalpha       = 8
  Nbeta        = 8

  ==> Algorithm <==

  SCF Algorithm Type is DF.
  DIIS enabled.
  MOM disabled.
  Fractional occupation disabled.
  Guess Type is SAD.
  Energy threshold   = 1.00e-08
  Density threshold  = 1.00e-08
  Integral threshold = 1.00e-12

  ==> Primary Basis <==

  Basis Set: STO-3G
    Blend: STO-3G
    Number of shells: 10
    Number of basis functions: 14
    Number of Cartesian functions: 14
    Spherical Harmonics?: true
    Max angular momentum: 1

   => Loading Basis Set <=

    Name: (STO-3G AUX)
    Role: JKFIT
    Keyword: DF_BASIS_SCF
    atoms 1-2 entry C          line   198 file /gpfs/home/gdb20/.conda/envs/CHM4411L/share/psi4/basis/def2-universal-jkfit.gbs 
    atoms 3-6 entry H          line    18 file /gpfs/home/gdb20/.conda/envs/CHM4411L/share/psi4/basis/def2-universal-jkfit.gbs 

  ==> Integral Setup <==

  DFHelper Memory: AOs need 0.001 GiB; user supplied 0.698 GiB. 
  Using in-core AOs.

  ==> MemDFJK: Density-Fitted J/K Matrices <==

    J tasked:                   Yes
    K tasked:                   Yes
    wK tasked:                   No
    OpenMP threads:               1
    Memory [MiB]:               715
    Algorithm:                 Core
    Schwarz Cutoff:           1E-12
    Mask sparsity (%):       0.0000
    Fitting Condition:        1E-10

   => Auxiliary Basis Set <=

  Basis Set: (STO-3G AUX)
    Blend: DEF2-UNIVERSAL-JKFIT
    Number of shells: 74
    Number of basis functions: 222
    Number of Cartesian functions: 258
    Spherical Harmonics?: true
    Max angular momentum: 4

  Minimum eigenvalue in the overlap matrix is 1.9076551746E-01.
  Reciprocal condition number of the overlap matrix is 8.3822243322E-02.
    Using symmetric orthogonalization.

  ==> Pre-Iterations <==

  SCF Guess: Superposition of Atomic Densities via on-the-fly atomic UHF (no occupation information).

   -------------------------
    Irrep   Nso     Nmo    
   -------------------------
     A         14      14 
   -------------------------
    Total      14      14
   -------------------------

  ==> Iterations <==

                           Total Energy        Delta E     RMS |[F,P]|

   @DF-RHF iter SAD:   -75.25248771698135   -7.52525e+01   0.00000e+00 
   @DF-RHF iter   1:   -77.07033549689037   -1.81785e+00   3.82973e-03 DIIS/ADIIS
   @DF-RHF iter   2:   -77.07247855551120   -2.14306e-03   7.54374e-04 DIIS/ADIIS
   @DF-RHF iter   3:   -77.07258014006794   -1.01585e-04   9.01627e-05 DIIS
   @DF-RHF iter   4:   -77.07258151950178   -1.37943e-06   7.39431e-06 DIIS
   @DF-RHF iter   5:   -77.07258152850120   -8.99942e-09   3.99800e-07 DIIS
   @DF-RHF iter   6:   -77.07258152852188   -2.06768e-11   2.60280e-08 DIIS
   @DF-RHF iter   7:   -77.07258152852205   -1.70530e-13   3.51327e-09 DIIS
  Energy and wave function converged.


  ==> Post-Iterations <==

    Orbital Energies [Eh]
    ---------------------

    Doubly Occupied:                                                      

       1A    -11.019760     2A    -11.018963     3A     -0.977338  
       4A     -0.743127     5A     -0.602943     6A     -0.528026  
       7A     -0.462786     8A     -0.324164  

    Virtual:                                                              

       9A      0.318608    10A      0.631859    11A      0.685613  
      12A      0.691935    13A      0.941962    14A      0.982143  

    Final Occupation by Irrep:
              A 
    DOCC [     8 ]
    NA   [     8 ]
    NB   [     8 ]

  @DF-RHF Final Energy:   -77.07258152852205

   => Energetics <=

    Nuclear Repulsion Energy =             33.3199672726294764
    One-Electron Energy =                -169.4308818070677205
    Two-Electron Energy =                  59.0383330059162006
    Total Energy =                        -77.0725815285220506

Computation Completed


Properties will be evaluated at   0.000000,   0.000000,   0.000000 [a0]

Properties computed using the SCF density matrix


 Multipole Moments:

 ------------------------------------------------------------------------------------
     Multipole            Electronic (a.u.)      Nuclear  (a.u.)        Total (a.u.)
 ------------------------------------------------------------------------------------

 L = 1.  Multiply by 2.5417464519 to convert [e a0] to [Debye]
 Dipole X            :          0.0000012           -0.0000008            0.0000004
 Dipole Y            :         -0.0000019            0.0000024            0.0000005
 Dipole Z            :          0.0000096           -0.0000120           -0.0000024
 Magnitude           :                                                    0.0000025

 ------------------------------------------------------------------------------------

*** tstop() called on hpc-m36-1-1.local at Mon Feb 24 03:46:57 2025
Module time:
	user time   =       0.52 seconds =       0.01 minutes
	system time =       0.10 seconds =       0.00 minutes
	total time  =          1 seconds =       0.02 minutes
Total time:
	user time   =       0.52 seconds =       0.01 minutes
	system time =       0.10 seconds =       0.00 minutes
	total time  =          1 seconds =       0.02 minutes

*** tstart() called on hpc-m36-1-1.local
*** at Mon Feb 24 03:46:57 2025


         ------------------------------------------------------------
                                   SCF GRAD                          
                          Rob Parrish, Justin Turney,                
                       Andy Simmonett, and Alex Sokolov              
         ------------------------------------------------------------

  ==> Geometry <==

    Molecular point group: c1
    Full point group: C1

    Geometry (in Angstrom), charge = 0, multiplicity = 1:

       Center              X                  Y                   Z               Mass       
    ------------   -----------------  -----------------  -----------------  -----------------
         C            0.658979035954     0.104365392139    -0.030595960697    12.000000000000
         C           -0.658978964046    -0.104365607861     0.030597039303    12.000000000000
         H            1.345337035954    -0.709003607861    -0.244228960697     1.007825032230
         H            1.077448035954     1.092711392139     0.131738039303     1.007825032230
         H           -1.345337964046     0.709001392139     0.244229039303     1.007825032230
         H           -1.077447964046    -1.092706607861    -0.131750960697     1.007825032230

  Nuclear repulsion =   33.319967272629476

  ==> Basis Set <==

  Basis Set: STO-3G
    Blend: STO-3G
    Number of shells: 10
    Number of basis functions: 14
    Number of Cartesian functions: 14
    Spherical Harmonics?: true
    Max angular momentum: 1

  ==> DFJKGrad: Density-Fitted SCF Gradients <==

    Gradient:                    1
    J tasked:                  Yes
    K tasked:                  Yes
    wK tasked:                  No
    OpenMP threads:              1
    Integrals threads:           1
    Memory [MiB]:              715
    Schwarz Cutoff:          1E-12
    Fitting Condition:       1E-10

   => Auxiliary Basis Set <=

  Basis Set: (STO-3G AUX)
    Blend: DEF2-UNIVERSAL-JKFIT
    Number of shells: 74
    Number of basis functions: 222
    Number of Cartesian functions: 258
    Spherical Harmonics?: true
    Max angular momentum: 4


  -Total Gradient:
     Atom            X                  Y                   Z
    ------   -----------------  -----------------  -----------------
       1        0.046857947450     0.007420663112    -0.002175733254
       2       -0.046858954317    -0.007422114468     0.002176825675
       3       -0.000391904313    -0.004790038562    -0.000913556362
       4       -0.001765405583     0.004448769533     0.001013509627
       5        0.000392278678     0.004789123974     0.000913531969
       6        0.001766038085    -0.004446403589    -0.001014577656


*** tstop() called on hpc-m36-1-1.local at Mon Feb 24 03:46:57 2025
Module time:
	user time   =       0.06 seconds =       0.00 minutes
	system time =       0.01 seconds =       0.00 minutes
	total time  =          0 seconds =       0.00 minutes
Total time:
	user time   =       0.58 seconds =       0.01 minutes
	system time =       0.11 seconds =       0.00 minutes
	total time  =          1 seconds =       0.02 minutes

    			-----------------------------------------

    			 OPTKING 3.0: for geometry optimizations 

    			     By R.A. King, Bethel University     

    			        with contributions from          

    			    A.V. Copan, J. Cayton, A. Heide      

    			-----------------------------------------

    
	                            ===> Fragment 1 <== 

	 Z (Atomic Numbers)          Masses                          Geom                  
	       6.000000            12.000000          1.24528990  0.19722201 -0.05781799   
	       6.000000            12.000000         -1.24528976 -0.19722242  0.05782002   
	       1.000000             1.007825          2.54231854 -1.33982264 -0.46152585   
	       1.000000             1.007825          2.03608170  2.06492527  0.24894881   
	       1.000000             1.007825         -2.54232030  1.33981845  0.46152600   
	       1.000000             1.007825         -2.03608157 -2.06491622 -0.24897323   

	 - Coordinate -           - BOHR/RAD -       - ANG/DEG -
	 R(1,2)           =         2.524271           1.335787
	 R(1,3)           =         2.051285           1.085493
	 R(1,4)           =         2.051286           1.085494
	 R(2,5)           =         2.051283           1.085492
	 R(2,6)           =         2.051281           1.085491
	 B(1,2,5)         =         2.112727         121.050360
	 B(1,2,6)         =         2.112726         121.050262
	 B(2,1,3)         =         2.112725         121.050249
	 B(2,1,4)         =         2.112726         121.050271
	 B(3,1,4)         =         2.057734         117.899479
	 B(5,2,6)         =         2.057732         117.899378
	 D(3,1,2,5)       =         3.141593         180.000000
	 D(3,1,2,6)       =        -0.000000          -0.000000
	 D(4,1,2,5)       =        -0.000000          -0.000000
	 D(4,1,2,6)       =         3.141577         179.999097


	        --- Internal Coordinate Step in ANG or DEG, aJ/ANG or AJ/DEG ---
	-------------------------------------------------------------------------------
	           Coordinate      Previous         Force          Change          New 
	           ----------      --------        ------          ------        ------
	               R(1,2)       1.33579       -0.37326       -0.04094       1.29485
	               R(1,3)       1.08549       -0.02901       -0.00521       1.08028
	               R(1,4)       1.08549       -0.02901       -0.00521       1.08028
	               R(2,5)       1.08549       -0.02900       -0.00521       1.08028
	               R(2,6)       1.08549       -0.02900       -0.00521       1.08028
	             B(1,2,5)     121.05036        0.00018        0.81098     121.86134
	             B(1,2,6)     121.05026        0.00018        0.81109     121.86135
	             B(2,1,3)     121.05025        0.00018        0.81109     121.86134
	             B(2,1,4)     121.05027        0.00018        0.81108     121.86136
	             B(3,1,4)     117.89948       -0.00035       -1.62217     116.27731
	             B(5,2,6)     117.89938       -0.00035       -1.62207     116.27731
	           D(3,1,2,5)     180.00000       -0.00000        0.00000     180.00000
	           D(3,1,2,6)      -0.00000        0.00000        0.00099       0.00099
	           D(4,1,2,5)      -0.00000        0.00000        0.00000      -0.00000
	           D(4,1,2,6)     179.99910        0.00000        0.00190     180.00100
	-------------------------------------------------------------------------------

	                                 ==> Convergence Check <==                                  
    
	Measures of convergence in internal coordinates in au.
    
	Criteria marked as inactive (o), active & met (*), and active & unmet ( ).

	----------------------------------------------------------------------------------------------~
	   Step    Total Energy     Delta E     Max Force     RMS Force      Max Disp      RMS Disp   ~
	----------------------------------------------------------------------------------------------~
	  Convergence Criteria     1.00e-06 *    3.00e-04 *             o    1.20e-03 *             o~
	----------------------------------------------------------------------------------------------~
	     1     -77.07258153   -7.71e+01      4.53e-02      1.20e-02 o    7.74e-02      2.42e-02 o  ~
	----------------------------------------------------------------------------------------------

Next Geometry in Ang 
	Fragment 1 (Ang)

	    C   0.6387832673   0.1011675864  -0.0296603613
	    C  -0.6387838223  -0.1011653669   0.0296503493
	    H   1.3335665320  -0.6985254430  -0.2412544660
	    H   1.0692632758   1.0790723163   0.1296937999
	    H  -1.3335671837   0.6985273073   0.2412472000
	    H  -1.0692628534  -1.0790740473  -0.1296882860


    Structure for next step:
    Molecular point group: c1
    Full point group: C1

    Geometry (in Angstrom), charge = 0, multiplicity = 1:

    C            0.638783513094     0.101166631479    -0.029656012252
    C           -0.638783576422    -0.101166321862     0.029654698371
    H            1.333566777862    -0.698526397945    -0.241250116914
    H            1.069263521614     1.079071361288     0.129698148970
    H           -1.333566937899     0.698526352326     0.241251549044
    H           -1.069262607544    -1.079075002228    -0.129683936956


Scratch directory: /tmp/
gradient() will perform analytic gradient computation.
   => Libint2 <=

    Primary   basis highest AM E, G, H:  6, 6, 3
    Auxiliary basis highest AM E, G, H:  7, 7, 4
    Onebody   basis highest AM E, G, H:  -, -, -
    Solid Harmonics ordering:            Gaussian

*** tstart() called on hpc-m36-1-1.local
*** at Mon Feb 24 03:46:58 2025

   => Loading Basis Set <=

    Name: STO-3G
    Role: ORBITAL
    Keyword: BASIS
    atoms 1-2 entry C          line    61 file /gpfs/home/gdb20/.conda/envs/CHM4411L/share/psi4/basis/sto-3g.gbs 
    atoms 3-6 entry H          line    19 file /gpfs/home/gdb20/.conda/envs/CHM4411L/share/psi4/basis/sto-3g.gbs 


         ---------------------------------------------------------
                                   SCF
               by Justin Turney, Rob Parrish, Andy Simmonett
                          and Daniel G. A. Smith
                              RHF Reference
                        1 Threads,    953 MiB Core
         ---------------------------------------------------------

  ==> Geometry <==

    Molecular point group: c1
    Full point group: C1

    Geometry (in Angstrom), charge = 0, multiplicity = 1:

       Center              X                  Y                   Z               Mass       
    ------------   -----------------  -----------------  -----------------  -----------------
         C            0.638783513094     0.101166631479    -0.029656012252    12.000000000000
         C           -0.638783576422    -0.101166321862     0.029654698371    12.000000000000
         H            1.333566777862    -0.698526397945    -0.241250116914     1.007825032230
         H            1.069263521614     1.079071361288     0.129698148970     1.007825032230
         H           -1.333566937899     0.698526352326     0.241251549044     1.007825032230
         H           -1.069262607544    -1.079075002228    -0.129683936956     1.007825032230

  Running in c1 symmetry.

  Rotational constants: A =      4.96738  B =      1.05117  C =      0.86758 [cm^-1]
  Rotational constants: A = 148918.40315  B =  31513.18279  C =  26009.26459 [MHz]
  Nuclear repulsion =   33.937426046770334

  Charge       = 0
  Multiplicity = 1
  Electrons    = 16
  Nalpha       = 8
  Nbeta        = 8

  ==> Algorithm <==

  SCF Algorithm Type is DF.
  DIIS enabled.
  MOM disabled.
  Fractional occupation disabled.
  Guess Type is READ.
  Energy threshold   = 1.00e-08
  Density threshold  = 1.00e-08
  Integral threshold = 1.00e-12

  ==> Primary Basis <==

  Basis Set: STO-3G
    Blend: STO-3G
    Number of shells: 10
    Number of basis functions: 14
    Number of Cartesian functions: 14
    Spherical Harmonics?: true
    Max angular momentum: 1

   => Loading Basis Set <=

    Name: (STO-3G AUX)
    Role: JKFIT
    Keyword: DF_BASIS_SCF
    atoms 1-2 entry C          line   198 file /gpfs/home/gdb20/.conda/envs/CHM4411L/share/psi4/basis/def2-universal-jkfit.gbs 
    atoms 3-6 entry H          line    18 file /gpfs/home/gdb20/.conda/envs/CHM4411L/share/psi4/basis/def2-universal-jkfit.gbs 

   => Loading Basis Set <=

    Name: STO-3G
    Role: ORBITAL
    Keyword: BASIS
    atoms 1-2 entry C          line    61 file /gpfs/home/gdb20/.conda/envs/CHM4411L/share/psi4/basis/sto-3g.gbs 
    atoms 3-6 entry H          line    19 file /gpfs/home/gdb20/.conda/envs/CHM4411L/share/psi4/basis/sto-3g.gbs 

  Reading orbitals from file /tmp/output.default.2743729.180.npy, no projection.

  ==> Integral Setup <==

  DFHelper Memory: AOs need 0.001 GiB; user supplied 0.698 GiB. 
  Using in-core AOs.

  ==> MemDFJK: Density-Fitted J/K Matrices <==

    J tasked:                   Yes
    K tasked:                   Yes
    wK tasked:                   No
    OpenMP threads:               1
    Memory [MiB]:               715
    Algorithm:                 Core
    Schwarz Cutoff:           1E-12
    Mask sparsity (%):       0.0000
    Fitting Condition:        1E-10

   => Auxiliary Basis Set <=

  Basis Set: (STO-3G AUX)
    Blend: DEF2-UNIVERSAL-JKFIT
    Number of shells: 74
    Number of basis functions: 222
    Number of Cartesian functions: 258
    Spherical Harmonics?: true
    Max angular momentum: 4

  Minimum eigenvalue in the overlap matrix is 1.7331110734E-01.
  Reciprocal condition number of the overlap matrix is 7.5025858848E-02.
    Using symmetric orthogonalization.

  ==> Pre-Iterations <==

  SCF Guess: Orbitals guess was supplied from a previous computation.

   -------------------------------------------------------
    Irrep   Nso     Nmo     Nalpha   Nbeta   Ndocc  Nsocc
   -------------------------------------------------------
     A         14      14       8       8       8       0
   -------------------------------------------------------
    Total      14      14       8       8       8       0
   -------------------------------------------------------

  ==> Iterations <==

                           Total Energy        Delta E     RMS |[F,P]|

   @DF-RHF iter   0:   -77.10041736832662   -7.71004e+01   7.30800e-03 
   @DF-RHF iter   1:   -77.07384175655186    2.65756e-02   8.42097e-04 DIIS/ADIIS
   @DF-RHF iter   2:   -77.07394513959990   -1.03383e-04   8.79095e-05 DIIS
   @DF-RHF iter   3:   -77.07394613667735   -9.97077e-07   1.92371e-05 DIIS
   @DF-RHF iter   4:   -77.07394620079394   -6.41166e-08   5.85114e-07 DIIS
   @DF-RHF iter   5:   -77.07394620084435   -5.04059e-11   2.02528e-08 DIIS
   @DF-RHF iter   6:   -77.07394620084453   -1.84741e-13   4.79691e-09 DIIS
  Energy and wave function converged.


  ==> Post-Iterations <==

    Orbital Energies [Eh]
    ---------------------

    Doubly Occupied:                                                      

       1A    -11.021989     2A    -11.020827     3A     -0.992290  
       4A     -0.744768     5A     -0.609568     6A     -0.541178  
       7A     -0.458119     8A     -0.339590  

    Virtual:                                                              

       9A      0.332414    10A      0.620509    11A      0.698404  
      12A      0.707097    13A      0.955484    14A      1.043593  

    Final Occupation by Irrep:
              A 
    DOCC [     8 ]
    NA   [     8 ]
    NB   [     8 ]

  @DF-RHF Final Energy:   -77.07394620084453

   => Energetics <=

    Nuclear Repulsion Energy =             33.9374260467703337
    One-Electron Energy =                -170.5660882012553543
    Two-Electron Energy =                  59.5547159536404962
    Total Energy =                        -77.0739462008445315

Computation Completed


Properties will be evaluated at   0.000000,   0.000000,   0.000000 [a0]

Properties computed using the SCF density matrix


 Multipole Moments:

 ------------------------------------------------------------------------------------
     Multipole            Electronic (a.u.)      Nuclear  (a.u.)        Total (a.u.)
 ------------------------------------------------------------------------------------

 L = 1.  Multiply by 2.5417464519 to convert [e a0] to [Debye]
 Dipole X            :         -0.0000007            0.0000007            0.0000000
 Dipole Y            :          0.0000029           -0.0000035           -0.0000006
 Dipole Z            :         -0.0000118            0.0000147            0.0000029
 Magnitude           :                                                    0.0000030

 ------------------------------------------------------------------------------------

*** tstop() called on hpc-m36-1-1.local at Mon Feb 24 03:46:58 2025
Module time:
	user time   =       0.27 seconds =       0.00 minutes
	system time =       0.01 seconds =       0.00 minutes
	total time  =          0 seconds =       0.00 minutes
Total time:
	user time   =       1.03 seconds =       0.02 minutes
	system time =       0.12 seconds =       0.00 minutes
	total time  =          2 seconds =       0.03 minutes

*** tstart() called on hpc-m36-1-1.local
*** at Mon Feb 24 03:46:58 2025


         ------------------------------------------------------------
                                   SCF GRAD                          
                          Rob Parrish, Justin Turney,                
                       Andy Simmonett, and Alex Sokolov              
         ------------------------------------------------------------

  ==> Geometry <==

    Molecular point group: c1
    Full point group: C1

    Geometry (in Angstrom), charge = 0, multiplicity = 1:

       Center              X                  Y                   Z               Mass       
    ------------   -----------------  -----------------  -----------------  -----------------
         C            0.638783513094     0.101166631479    -0.029656012252    12.000000000000
         C           -0.638783576422    -0.101166321862     0.029654698371    12.000000000000
         H            1.333566777862    -0.698526397945    -0.241250116914     1.007825032230
         H            1.069263521614     1.079071361288     0.129698148970     1.007825032230
         H           -1.333566937899     0.698526352326     0.241251549044     1.007825032230
         H           -1.069262607544    -1.079075002228    -0.129683936956     1.007825032230

  Nuclear repulsion =   33.937426046770334

  ==> Basis Set <==

  Basis Set: STO-3G
    Blend: STO-3G
    Number of shells: 10
    Number of basis functions: 14
    Number of Cartesian functions: 14
    Spherical Harmonics?: true
    Max angular momentum: 1

  ==> DFJKGrad: Density-Fitted SCF Gradients <==

    Gradient:                    1
    J tasked:                  Yes
    K tasked:                  Yes
    wK tasked:                  No
    OpenMP threads:              1
    Integrals threads:           1
    Memory [MiB]:              715
    Schwarz Cutoff:          1E-12
    Fitting Condition:       1E-10

   => Auxiliary Basis Set <=

  Basis Set: (STO-3G AUX)
    Blend: DEF2-UNIVERSAL-JKFIT
    Number of shells: 74
    Number of basis functions: 222
    Number of Cartesian functions: 258
    Spherical Harmonics?: true
    Max angular momentum: 4


  -Total Gradient:
     Atom            X                  Y                   Z
    ------   -----------------  -----------------  -----------------
       1       -0.016458801227    -0.002606536051     0.000764449853
       2        0.016459183653     0.002607368174    -0.000765926580
       3       -0.002164637712     0.000024820275     0.000172673509
       4       -0.002057817616    -0.000693725152     0.000023534186
       5        0.002164449872    -0.000024594495    -0.000172611198
       6        0.002057623030     0.000692667248    -0.000022119771


*** tstop() called on hpc-m36-1-1.local at Mon Feb 24 03:46:58 2025
Module time:
	user time   =       0.04 seconds =       0.00 minutes
	system time =       0.00 seconds =       0.00 minutes
	total time  =          0 seconds =       0.00 minutes
Total time:
	user time   =       1.08 seconds =       0.02 minutes
	system time =       0.12 seconds =       0.00 minutes
	total time  =          2 seconds =       0.03 minutes

    			-----------------------------------------

    			 OPTKING 3.0: for geometry optimizations 

    			     By R.A. King, Bethel University     

    			        with contributions from          

    			    A.V. Copan, J. Cayton, A. Heide      

    			-----------------------------------------

    
	                            ===> Fragment 1 <== 

	 Z (Atomic Numbers)          Masses                          Geom                  
	       6.000000            12.000000          1.20712589  0.19117723 -0.05604174   
	       6.000000            12.000000         -1.20712601 -0.19117664  0.05603926   
	       1.000000             1.007825          2.52007598 -1.32002358 -0.45589665   
	       1.000000             1.007825          2.02061521  2.03914934  0.24509398   
	       1.000000             1.007825         -2.52007628  1.32002350  0.45589936   
	       1.000000             1.007825         -2.02061348 -2.03915622 -0.24506712   

	 - Coordinate -           - BOHR/RAD -       - ANG/DEG -
	 R(1,2)           =         2.446910           1.294849
	 R(1,3)           =         2.041433           1.080280
	 R(1,4)           =         2.041433           1.080280
	 R(2,5)           =         2.041434           1.080280
	 R(2,6)           =         2.041435           1.080281
	 B(1,2,5)         =         2.126882         121.861345
	 B(1,2,6)         =         2.126882         121.861349
	 B(2,1,3)         =         2.126882         121.861338
	 B(2,1,4)         =         2.126882         121.861356
	 B(3,1,4)         =         2.029422         116.277306
	 B(5,2,6)         =         2.029422         116.277306
	 D(3,1,2,5)       =         3.141593         180.000000
	 D(3,1,2,6)       =         0.000017           0.000990
	 D(4,1,2,5)       =        -0.000000          -0.000000
	 D(4,1,2,6)       =         3.141610         180.001001


	        --- Internal Coordinate Step in ANG or DEG, aJ/ANG or AJ/DEG ---
	-------------------------------------------------------------------------------
	           Coordinate      Previous         Force          Change          New 
	           ----------      --------        ------          ------        ------
	               R(1,2)       1.29485        0.17269        0.01216       1.30701
	               R(1,3)       1.08028        0.01190        0.00135       1.08163
	               R(1,4)       1.08028        0.01190        0.00135       1.08163
	               R(2,5)       1.08028        0.01190        0.00135       1.08163
	               R(2,6)       1.08028        0.01189        0.00135       1.08163
	             B(1,2,5)     121.86134        0.00008        0.32624     122.18759
	             B(1,2,6)     121.86135        0.00008        0.32624     122.18759
	             B(2,1,3)     121.86134        0.00008        0.32625     122.18759
	             B(2,1,4)     121.86136        0.00008        0.32624     122.18759
	             B(3,1,4)     116.27731       -0.00017       -0.65249     115.62482
	             B(5,2,6)     116.27731       -0.00017       -0.65249     115.62482
	           D(3,1,2,5)     180.00000        0.00000        0.00097     180.00097
	           D(3,1,2,6)       0.00099       -0.00000       -0.00099      -0.00000
	           D(4,1,2,5)      -0.00000        0.00000        0.00000       0.00000
	           D(4,1,2,6)     180.00100       -0.00000       -0.00195     179.99905
	-------------------------------------------------------------------------------

	                                 ==> Convergence Check <==                                  
    
	Measures of convergence in internal coordinates in au.
    
	Criteria marked as inactive (o), active & met (*), and active & unmet ( ).

	----------------------------------------------------------------------------------------------
	   Step    Total Energy     Delta E     Max Force     RMS Force      Max Disp      RMS Disp   
	----------------------------------------------------------------------------------------------
	  Convergence Criteria     1.00e-06 *    3.00e-04 *             o    1.20e-03 *             o
	----------------------------------------------------------------------------------------------
	     2     -77.07394620   -1.36e-03      2.10e-02      5.55e-03 o    2.30e-02      7.93e-03 o  ~
	----------------------------------------------------------------------------------------------

Next Geometry in Ang 
	Fragment 1 (Ang)

	    C   0.6447843756   0.1021160222  -0.0299304196
	    C  -0.6447833437  -0.1021190917   0.0299452003
	    H   1.3451157463  -0.6945942875  -0.2413715828
	    H   1.0814229124   1.0788953015   0.1287128469
	    H  -1.3451159414   0.6945942555   0.2413711896
	    H  -1.0814230584  -1.0788955769  -0.1287129042


    Structure for next step:
    Molecular point group: c1
    Full point group: C1

    Geometry (in Angstrom), charge = 0, multiplicity = 1:

    C            0.644783946127     0.102117347242    -0.029936730949
    C           -0.644783773204    -0.102117766571     0.029938889018
    H            1.345115316833    -0.694592962456    -0.241377894117
    H            1.081422482942     1.078896626578     0.128706535555
    H           -1.345116370887     0.694595580542     0.241364878309
    H           -1.081423487853    -1.078894251788    -0.128719215507


Scratch directory: /tmp/
gradient() will perform analytic gradient computation.
   => Libint2 <=

    Primary   basis highest AM E, G, H:  6, 6, 3
    Auxiliary basis highest AM E, G, H:  7, 7, 4
    Onebody   basis highest AM E, G, H:  -, -, -
    Solid Harmonics ordering:            Gaussian

*** tstart() called on hpc-m36-1-1.local
*** at Mon Feb 24 03:46:58 2025

   => Loading Basis Set <=

    Name: STO-3G
    Role: ORBITAL
    Keyword: BASIS
    atoms 1-2 entry C          line    61 file /gpfs/home/gdb20/.conda/envs/CHM4411L/share/psi4/basis/sto-3g.gbs 
    atoms 3-6 entry H          line    19 file /gpfs/home/gdb20/.conda/envs/CHM4411L/share/psi4/basis/sto-3g.gbs 


         ---------------------------------------------------------
                                   SCF
               by Justin Turney, Rob Parrish, Andy Simmonett
                          and Daniel G. A. Smith
                              RHF Reference
                        1 Threads,    953 MiB Core
         ---------------------------------------------------------

  ==> Geometry <==

    Molecular point group: c1
    Full point group: C1

    Geometry (in Angstrom), charge = 0, multiplicity = 1:

       Center              X                  Y                   Z               Mass       
    ------------   -----------------  -----------------  -----------------  -----------------
         C            0.644783946127     0.102117347242    -0.029936730949    12.000000000000
         C           -0.644783773204    -0.102117766571     0.029938889018    12.000000000000
         H            1.345115316833    -0.694592962456    -0.241377894117     1.007825032230
         H            1.081422482942     1.078896626578     0.128706535555     1.007825032230
         H           -1.345116370887     0.694595580542     0.241364878309     1.007825032230
         H           -1.081423487853    -1.078894251788    -0.128719215507     1.007825032230

  Running in c1 symmetry.

  Rotational constants: A =      4.99043  B =      1.03133  C =      0.85470 [cm^-1]
  Rotational constants: A = 149609.39969  B =  30918.55720  C =  25623.21572 [MHz]
  Nuclear repulsion =   33.736339738611179

  Charge       = 0
  Multiplicity = 1
  Electrons    = 16
  Nalpha       = 8
  Nbeta        = 8

  ==> Algorithm <==

  SCF Algorithm Type is DF.
  DIIS enabled.
  MOM disabled.
  Fractional occupation disabled.
  Guess Type is READ.
  Energy threshold   = 1.00e-08
  Density threshold  = 1.00e-08
  Integral threshold = 1.00e-12

  ==> Primary Basis <==

  Basis Set: STO-3G
    Blend: STO-3G
    Number of shells: 10
    Number of basis functions: 14
    Number of Cartesian functions: 14
    Spherical Harmonics?: true
    Max angular momentum: 1

   => Loading Basis Set <=

    Name: (STO-3G AUX)
    Role: JKFIT
    Keyword: DF_BASIS_SCF
    atoms 1-2 entry C          line   198 file /gpfs/home/gdb20/.conda/envs/CHM4411L/share/psi4/basis/def2-universal-jkfit.gbs 
    atoms 3-6 entry H          line    18 file /gpfs/home/gdb20/.conda/envs/CHM4411L/share/psi4/basis/def2-universal-jkfit.gbs 

   => Loading Basis Set <=

    Name: STO-3G
    Role: ORBITAL
    Keyword: BASIS
    atoms 1-2 entry C          line    61 file /gpfs/home/gdb20/.conda/envs/CHM4411L/share/psi4/basis/sto-3g.gbs 
    atoms 3-6 entry H          line    19 file /gpfs/home/gdb20/.conda/envs/CHM4411L/share/psi4/basis/sto-3g.gbs 

  Reading orbitals from file /tmp/output.default.2743729.180.npy, no projection.

  ==> Integral Setup <==

  DFHelper Memory: AOs need 0.001 GiB; user supplied 0.698 GiB. 
  Using in-core AOs.

  ==> MemDFJK: Density-Fitted J/K Matrices <==

    J tasked:                   Yes
    K tasked:                   Yes
    wK tasked:                   No
    OpenMP threads:               1
    Memory [MiB]:               715
    Algorithm:                 Core
    Schwarz Cutoff:           1E-12
    Mask sparsity (%):       0.0000
    Fitting Condition:        1E-10

   => Auxiliary Basis Set <=

  Basis Set: (STO-3G AUX)
    Blend: DEF2-UNIVERSAL-JKFIT
    Number of shells: 74
    Number of basis functions: 222
    Number of Cartesian functions: 258
    Spherical Harmonics?: true
    Max angular momentum: 4

  Minimum eigenvalue in the overlap matrix is 1.7913147656E-01.
  Reciprocal condition number of the overlap matrix is 7.7986404634E-02.
    Using symmetric orthogonalization.

  ==> Pre-Iterations <==

  SCF Guess: Orbitals guess was supplied from a previous computation.

   -------------------------------------------------------
    Irrep   Nso     Nmo     Nalpha   Nbeta   Ndocc  Nsocc
   -------------------------------------------------------
     A         14      14       8       8       8       0
   -------------------------------------------------------
    Total      14      14       8       8       8       0
   -------------------------------------------------------

  ==> Iterations <==

                           Total Energy        Delta E     RMS |[F,P]|

   @DF-RHF iter   0:   -77.06784170338318   -7.70678e+01   2.15301e-03 
   @DF-RHF iter   1:   -77.07420258754958   -6.36088e-03   2.05527e-04 DIIS/ADIIS
   @DF-RHF iter   2:   -77.07420884229093   -6.25474e-06   2.35821e-05 DIIS
   @DF-RHF iter   3:   -77.07420891636849   -7.40776e-08   5.39206e-06 DIIS
   @DF-RHF iter   4:   -77.07420892145632   -5.08783e-09   1.53867e-07 DIIS
   @DF-RHF iter   5:   -77.07420892145988   -3.56692e-12   1.39431e-08 DIIS
   @DF-RHF iter   6:   -77.07420892145998   -9.94760e-14   1.60887e-09 DIIS
  Energy and wave function converged.


  ==> Post-Iterations <==

    Orbital Energies [Eh]
    ---------------------

    Doubly Occupied:                                                      

       1A    -11.021850     2A    -11.020812     3A     -0.987385  
       4A     -0.746008     5A     -0.605538     6A     -0.540187  
       7A     -0.458295     8A     -0.335165  

    Virtual:                                                              

       9A      0.327925    10A      0.619290    11A      0.700427  
      12A      0.703904    13A      0.947759    14A      1.026456  

    Final Occupation by Irrep:
              A 
    DOCC [     8 ]
    NA   [     8 ]
    NB   [     8 ]

  @DF-RHF Final Energy:   -77.07420892145998

   => Energetics <=

    Nuclear Repulsion Energy =             33.7363397386111785
    One-Electron Energy =                -170.1906146422725783
    Two-Electron Energy =                  59.3800659822014154
    Total Energy =                        -77.0742089214599844

Computation Completed


Properties will be evaluated at   0.000000,   0.000000,   0.000000 [a0]

Properties computed using the SCF density matrix


 Multipole Moments:

 ------------------------------------------------------------------------------------
     Multipole            Electronic (a.u.)      Nuclear  (a.u.)        Total (a.u.)
 ------------------------------------------------------------------------------------

 L = 1.  Multiply by 2.5417464519 to convert [e a0] to [Debye]
 Dipole X            :          0.0000015           -0.0000019           -0.0000004
 Dipole Y            :         -0.0000038            0.0000047            0.0000009
 Dipole Z            :          0.0000194           -0.0000241           -0.0000047
 Magnitude           :                                                    0.0000048

 ------------------------------------------------------------------------------------

*** tstop() called on hpc-m36-1-1.local at Mon Feb 24 03:46:58 2025
Module time:
	user time   =       0.23 seconds =       0.00 minutes
	system time =       0.01 seconds =       0.00 minutes
	total time  =          0 seconds =       0.00 minutes
Total time:
	user time   =       1.46 seconds =       0.02 minutes
	system time =       0.13 seconds =       0.00 minutes
	total time  =          2 seconds =       0.03 minutes

*** tstart() called on hpc-m36-1-1.local
*** at Mon Feb 24 03:46:58 2025


         ------------------------------------------------------------
                                   SCF GRAD                          
                          Rob Parrish, Justin Turney,                
                       Andy Simmonett, and Alex Sokolov              
         ------------------------------------------------------------

  ==> Geometry <==

    Molecular point group: c1
    Full point group: C1

    Geometry (in Angstrom), charge = 0, multiplicity = 1:

       Center              X                  Y                   Z               Mass       
    ------------   -----------------  -----------------  -----------------  -----------------
         C            0.644783946127     0.102117347242    -0.029936730949    12.000000000000
         C           -0.644783773204    -0.102117766571     0.029938889018    12.000000000000
         H            1.345115316833    -0.694592962456    -0.241377894117     1.007825032230
         H            1.081422482942     1.078896626578     0.128706535555     1.007825032230
         H           -1.345116370887     0.694595580542     0.241364878309     1.007825032230
         H           -1.081423487853    -1.078894251788    -0.128719215507     1.007825032230

  Nuclear repulsion =   33.736339738611179

  ==> Basis Set <==

  Basis Set: STO-3G
    Blend: STO-3G
    Number of shells: 10
    Number of basis functions: 14
    Number of Cartesian functions: 14
    Spherical Harmonics?: true
    Max angular momentum: 1

  ==> DFJKGrad: Density-Fitted SCF Gradients <==

    Gradient:                    1
    J tasked:                  Yes
    K tasked:                  Yes
    wK tasked:                  No
    OpenMP threads:              1
    Integrals threads:           1
    Memory [MiB]:              715
    Schwarz Cutoff:          1E-12
    Fitting Condition:       1E-10

   => Auxiliary Basis Set <=

  Basis Set: (STO-3G AUX)
    Blend: DEF2-UNIVERSAL-JKFIT
    Number of shells: 74
    Number of basis functions: 222
    Number of Cartesian functions: 258
    Spherical Harmonics?: true
    Max angular momentum: 4


  -Total Gradient:
     Atom            X                  Y                   Z
    ------   -----------------  -----------------  -----------------
       1        0.001952693199     0.000309205151    -0.000090278707
       2       -0.001952414102    -0.000309641594     0.000092819690
       3       -0.000155149331     0.000301948209     0.000071143080
       4       -0.000060313412    -0.000335926265    -0.000061942597
       5        0.000155011568    -0.000301647217    -0.000072420096
       6        0.000060172078     0.000336061715     0.000060678629


*** tstop() called on hpc-m36-1-1.local at Mon Feb 24 03:46:58 2025
Module time:
	user time   =       0.04 seconds =       0.00 minutes
	system time =       0.00 seconds =       0.00 minutes
	total time  =          0 seconds =       0.00 minutes
Total time:
	user time   =       1.50 seconds =       0.03 minutes
	system time =       0.13 seconds =       0.00 minutes
	total time  =          2 seconds =       0.03 minutes

    			-----------------------------------------

    			 OPTKING 3.0: for geometry optimizations 

    			     By R.A. King, Bethel University     

    			        with contributions from          

    			    A.V. Copan, J. Cayton, A. Heide      

    			-----------------------------------------

    
	                            ===> Fragment 1 <== 

	 Z (Atomic Numbers)          Masses                          Geom                  
	       6.000000            12.000000          1.21846507  0.19297382 -0.05657222   
	       6.000000            12.000000         -1.21846474 -0.19297461  0.05657630   
	       1.000000             1.007825          2.54189956 -1.31259047 -0.45613811   
	       1.000000             1.007825          2.04359232  2.03881914  0.24322010   
	       1.000000             1.007825         -2.54190155  1.31259542  0.45611352   
	       1.000000             1.007825         -2.04359422 -2.03881465 -0.24324406   

	 - Coordinate -           - BOHR/RAD -       - ANG/DEG -
	 R(1,2)           =         2.469896           1.307013
	 R(1,3)           =         2.043980           1.081628
	 R(1,4)           =         2.043980           1.081628
	 R(2,5)           =         2.043980           1.081628
	 R(2,6)           =         2.043981           1.081628
	 B(1,2,5)         =         2.132576         122.187589
	 B(1,2,6)         =         2.132576         122.187591
	 B(2,1,3)         =         2.132576         122.187589
	 B(2,1,4)         =         2.132576         122.187592
	 B(3,1,4)         =         2.018034         115.624819
	 B(5,2,6)         =         2.018034         115.624820
	 D(3,1,2,5)       =         3.141610         180.000972
	 D(3,1,2,6)       =        -0.000000          -0.000000
	 D(4,1,2,5)       =         0.000000           0.000000
	 D(4,1,2,6)       =         3.141576         179.999052


	        --- Internal Coordinate Step in ANG or DEG, aJ/ANG or AJ/DEG ---
	-------------------------------------------------------------------------------
	           Coordinate      Previous         Force          Change          New 
	           ----------      --------        ------          ------        ------
	               R(1,2)       1.30701       -0.01451       -0.00114       1.30588
	               R(1,3)       1.08163        0.00277        0.00055       1.08218
	               R(1,4)       1.08163        0.00277        0.00055       1.08218
	               R(2,5)       1.08163        0.00277        0.00055       1.08218
	               R(2,6)       1.08163        0.00277        0.00055       1.08218
	             B(1,2,5)     122.18759       -0.00000       -0.00991     122.17768
	             B(1,2,6)     122.18759       -0.00000       -0.00991     122.17768
	             B(2,1,3)     122.18759       -0.00000       -0.00991     122.17768
	             B(2,1,4)     122.18759       -0.00000       -0.00991     122.17768
	             B(3,1,4)     115.62482        0.00001        0.01982     115.64464
	             B(5,2,6)     115.62482        0.00001        0.01982     115.64464
	           D(3,1,2,5)     180.00097       -0.00000       -0.00240     179.99858
	           D(3,1,2,6)      -0.00000        0.00000        0.00083       0.00083
	           D(4,1,2,5)       0.00000       -0.00000       -0.00089      -0.00089
	           D(4,1,2,6)     179.99905        0.00000        0.00231     180.00136
	-------------------------------------------------------------------------------

	                                 ==> Convergence Check <==                                  
    
	Measures of convergence in internal coordinates in au.
    
	Criteria marked as inactive (o), active & met (*), and active & unmet ( ).

	----------------------------------------------------------------------------------------------
	   Step    Total Energy     Delta E     Max Force     RMS Force      Max Disp      RMS Disp   
	----------------------------------------------------------------------------------------------
	  Convergence Criteria     1.00e-06 *    3.00e-04 *             o    1.20e-03 *             o
	----------------------------------------------------------------------------------------------
	     3     -77.07420892   -2.63e-04      1.76e-03      4.89e-04 o    2.15e-03      7.88e-04 o  ~
	----------------------------------------------------------------------------------------------

Next Geometry in Ang 
	Fragment 1 (Ang)

	    C   0.6442231630   0.1020300519  -0.0299181055
	    C  -0.6442249344  -0.1020256801   0.0298957434
	    H   1.3447704224  -0.6952100219  -0.2414673410
	    H   1.0809144316   1.0793765769   0.1288452835
	    H  -1.3447704471   0.6952099662   0.2414672541
	    H  -1.0809145216  -1.0793763195  -0.1288463722


    Structure for next step:
    Molecular point group: c1
    Full point group: C1

    Geometry (in Angstrom), charge = 0, multiplicity = 1:

    C            0.644223925440     0.102028173133    -0.029908490172
    C           -0.644224171943    -0.102027558910     0.029905358728
    H            1.344771184815    -0.695211900746    -0.241457725726
    H            1.080915194048     1.079374698121     0.128854898834
    H           -1.344769684624     0.695208087453     0.241476869381
    H           -1.080913759173    -1.079378198281    -0.128836756929


Scratch directory: /tmp/
gradient() will perform analytic gradient computation.
   => Libint2 <=

    Primary   basis highest AM E, G, H:  6, 6, 3
    Auxiliary basis highest AM E, G, H:  7, 7, 4
    Onebody   basis highest AM E, G, H:  -, -, -
    Solid Harmonics ordering:            Gaussian

*** tstart() called on hpc-m36-1-1.local
*** at Mon Feb 24 03:46:58 2025

   => Loading Basis Set <=

    Name: STO-3G
    Role: ORBITAL
    Keyword: BASIS
    atoms 1-2 entry C          line    61 file /gpfs/home/gdb20/.conda/envs/CHM4411L/share/psi4/basis/sto-3g.gbs 
    atoms 3-6 entry H          line    19 file /gpfs/home/gdb20/.conda/envs/CHM4411L/share/psi4/basis/sto-3g.gbs 


         ---------------------------------------------------------
                                   SCF
               by Justin Turney, Rob Parrish, Andy Simmonett
                          and Daniel G. A. Smith
                              RHF Reference
                        1 Threads,    953 MiB Core
         ---------------------------------------------------------

  ==> Geometry <==

    Molecular point group: c1
    Full point group: C1

    Geometry (in Angstrom), charge = 0, multiplicity = 1:

       Center              X                  Y                   Z               Mass       
    ------------   -----------------  -----------------  -----------------  -----------------
         C            0.644223925440     0.102028173133    -0.029908490172    12.000000000000
         C           -0.644224171943    -0.102027558910     0.029905358728    12.000000000000
         H            1.344771184815    -0.695211900746    -0.241457725726     1.007825032230
         H            1.080915194048     1.079374698121     0.128854898834     1.007825032230
         H           -1.344769684624     0.695208087453     0.241476869381     1.007825032230
         H           -1.080913759173    -1.079378198281    -0.128836756929     1.007825032230

  Running in c1 symmetry.

  Rotational constants: A =      4.98427  B =      1.03273  C =      0.85548 [cm^-1]
  Rotational constants: A = 149424.53251  B =  30960.39990  C =  25646.50617 [MHz]
  Nuclear repulsion =   33.744720267789567

  Charge       = 0
  Multiplicity = 1
  Electrons    = 16
  Nalpha       = 8
  Nbeta        = 8

  ==> Algorithm <==

  SCF Algorithm Type is DF.
  DIIS enabled.
  MOM disabled.
  Fractional occupation disabled.
  Guess Type is READ.
  Energy threshold   = 1.00e-08
  Density threshold  = 1.00e-08
  Integral threshold = 1.00e-12

  ==> Primary Basis <==

  Basis Set: STO-3G
    Blend: STO-3G
    Number of shells: 10
    Number of basis functions: 14
    Number of Cartesian functions: 14
    Spherical Harmonics?: true
    Max angular momentum: 1

   => Loading Basis Set <=

    Name: (STO-3G AUX)
    Role: JKFIT
    Keyword: DF_BASIS_SCF
    atoms 1-2 entry C          line   198 file /gpfs/home/gdb20/.conda/envs/CHM4411L/share/psi4/basis/def2-universal-jkfit.gbs 
    atoms 3-6 entry H          line    18 file /gpfs/home/gdb20/.conda/envs/CHM4411L/share/psi4/basis/def2-universal-jkfit.gbs 

   => Loading Basis Set <=

    Name: STO-3G
    Role: ORBITAL
    Keyword: BASIS
    atoms 1-2 entry C          line    61 file /gpfs/home/gdb20/.conda/envs/CHM4411L/share/psi4/basis/sto-3g.gbs 
    atoms 3-6 entry H          line    19 file /gpfs/home/gdb20/.conda/envs/CHM4411L/share/psi4/basis/sto-3g.gbs 

  Reading orbitals from file /tmp/output.default.2743729.180.npy, no projection.

  ==> Integral Setup <==

  DFHelper Memory: AOs need 0.001 GiB; user supplied 0.698 GiB. 
  Using in-core AOs.

  ==> MemDFJK: Density-Fitted J/K Matrices <==

    J tasked:                   Yes
    K tasked:                   Yes
    wK tasked:                   No
    OpenMP threads:               1
    Memory [MiB]:               715
    Algorithm:                 Core
    Schwarz Cutoff:           1E-12
    Mask sparsity (%):       0.0000
    Fitting Condition:        1E-10

   => Auxiliary Basis Set <=

  Basis Set: (STO-3G AUX)
    Blend: DEF2-UNIVERSAL-JKFIT
    Number of shells: 74
    Number of basis functions: 222
    Number of Cartesian functions: 258
    Spherical Harmonics?: true
    Max angular momentum: 4

  Minimum eigenvalue in the overlap matrix is 1.7867857450E-01.
  Reciprocal condition number of the overlap matrix is 7.7778528677E-02.
    Using symmetric orthogonalization.

  ==> Pre-Iterations <==

  SCF Guess: Orbitals guess was supplied from a previous computation.

   -------------------------------------------------------
    Irrep   Nso     Nmo     Nalpha   Nbeta   Ndocc  Nsocc
   -------------------------------------------------------
     A         14      14       8       8       8       0
   -------------------------------------------------------
    Total      14      14       8       8       8       0
   -------------------------------------------------------

  ==> Iterations <==

                           Total Energy        Delta E     RMS |[F,P]|

   @DF-RHF iter   0:   -77.07387522351485   -7.70739e+01   2.58899e-04 
   @DF-RHF iter   1:   -77.07421091488663   -3.35691e-04   1.22599e-05 DIIS
   @DF-RHF iter   2:   -77.07421093704518   -2.21585e-08   1.20936e-06 DIIS
   @DF-RHF iter   3:   -77.07421093724000   -1.94817e-10   2.44650e-07 DIIS
   @DF-RHF iter   4:   -77.07421093725101   -1.10134e-11   1.32275e-08 DIIS
   @DF-RHF iter   5:   -77.07421093725105   -4.26326e-14   1.46595e-09 DIIS
  Energy and wave function converged.


  ==> Post-Iterations <==

    Orbital Energies [Eh]
    ---------------------

    Doubly Occupied:                                                      

       1A    -11.021878     2A    -11.020829     3A     -0.987675  
       4A     -0.745629     5A     -0.605568     6A     -0.540213  
       7A     -0.457970     8A     -0.335532  

    Virtual:                                                              

       9A      0.328405    10A      0.618617    11A      0.699686  
      12A      0.703403    13A      0.947586    14A      1.028141  

    Final Occupation by Irrep:
              A 
    DOCC [     8 ]
    NA   [     8 ]
    NB   [     8 ]

  @DF-RHF Final Energy:   -77.07421093725105

   => Energetics <=

    Nuclear Repulsion Energy =             33.7447202677895675
    One-Electron Energy =                -170.2072750316528413
    Two-Electron Energy =                  59.3883438266122212
    Total Energy =                        -77.0742109372510527

Computation Completed


Properties will be evaluated at   0.000000,   0.000000,   0.000000 [a0]

Properties computed using the SCF density matrix


 Multipole Moments:

 ------------------------------------------------------------------------------------
     Multipole            Electronic (a.u.)      Nuclear  (a.u.)        Total (a.u.)
 ------------------------------------------------------------------------------------

 L = 1.  Multiply by 2.5417464519 to convert [e a0] to [Debye]
 Dipole X            :         -0.0000022            0.0000028            0.0000006
 Dipole Y            :          0.0000055           -0.0000069           -0.0000013
 Dipole Z            :         -0.0000282            0.0000350            0.0000068
 Magnitude           :                                                    0.0000069

 ------------------------------------------------------------------------------------

*** tstop() called on hpc-m36-1-1.local at Mon Feb 24 03:46:59 2025
Module time:
	user time   =       0.23 seconds =       0.00 minutes
	system time =       0.01 seconds =       0.00 minutes
	total time  =          1 seconds =       0.02 minutes
Total time:
	user time   =       1.82 seconds =       0.03 minutes
	system time =       0.14 seconds =       0.00 minutes
	total time  =          3 seconds =       0.05 minutes

*** tstart() called on hpc-m36-1-1.local
*** at Mon Feb 24 03:46:59 2025


         ------------------------------------------------------------
                                   SCF GRAD                          
                          Rob Parrish, Justin Turney,                
                       Andy Simmonett, and Alex Sokolov              
         ------------------------------------------------------------

  ==> Geometry <==

    Molecular point group: c1
    Full point group: C1

    Geometry (in Angstrom), charge = 0, multiplicity = 1:

       Center              X                  Y                   Z               Mass       
    ------------   -----------------  -----------------  -----------------  -----------------
         C            0.644223925440     0.102028173133    -0.029908490172    12.000000000000
         C           -0.644224171943    -0.102027558910     0.029905358728    12.000000000000
         H            1.344771184815    -0.695211900746    -0.241457725726     1.007825032230
         H            1.080915194048     1.079374698121     0.128854898834     1.007825032230
         H           -1.344769684624     0.695208087453     0.241476869381     1.007825032230
         H           -1.080913759173    -1.079378198281    -0.128836756929     1.007825032230

  Nuclear repulsion =   33.744720267789567

  ==> Basis Set <==

  Basis Set: STO-3G
    Blend: STO-3G
    Number of shells: 10
    Number of basis functions: 14
    Number of Cartesian functions: 14
    Spherical Harmonics?: true
    Max angular momentum: 1

  ==> DFJKGrad: Density-Fitted SCF Gradients <==

    Gradient:                    1
    J tasked:                  Yes
    K tasked:                  Yes
    wK tasked:                  No
    OpenMP threads:              1
    Integrals threads:           1
    Memory [MiB]:              715
    Schwarz Cutoff:          1E-12
    Fitting Condition:       1E-10

   => Auxiliary Basis Set <=

  Basis Set: (STO-3G AUX)
    Blend: DEF2-UNIVERSAL-JKFIT
    Number of shells: 74
    Number of basis functions: 222
    Number of Cartesian functions: 258
    Spherical Harmonics?: true
    Max angular momentum: 4


  -Total Gradient:
     Atom            X                  Y                   Z
    ------   -----------------  -----------------  -----------------
       1       -0.000417381757    -0.000066062839     0.000019116587
       2        0.000417044180     0.000066748354    -0.000022819189
       3        0.000107263215    -0.000132744952    -0.000033941218
       4        0.000063793055     0.000159637266     0.000027008734
       5       -0.000107094235     0.000132340860     0.000035843305
       6       -0.000063624460    -0.000159918688    -0.000025208219


*** tstop() called on hpc-m36-1-1.local at Mon Feb 24 03:46:59 2025
Module time:
	user time   =       0.05 seconds =       0.00 minutes
	system time =       0.00 seconds =       0.00 minutes
	total time  =          0 seconds =       0.00 minutes
Total time:
	user time   =       1.87 seconds =       0.03 minutes
	system time =       0.14 seconds =       0.00 minutes
	total time  =          3 seconds =       0.05 minutes

    			-----------------------------------------

    			 OPTKING 3.0: for geometry optimizations 

    			     By R.A. King, Bethel University     

    			        with contributions from          

    			    A.V. Copan, J. Cayton, A. Heide      

    			-----------------------------------------

    
	                            ===> Fragment 1 <== 

	 Z (Atomic Numbers)          Masses                          Geom                  
	       6.000000            12.000000          1.21740678  0.19280530 -0.05651886   
	       6.000000            12.000000         -1.21740725 -0.19280414  0.05651294   
	       1.000000             1.007825          2.54124924 -1.31376009 -0.45628897   
	       1.000000             1.007825          2.04263368  2.03972257  0.24350047   
	       1.000000             1.007825         -2.54124641  1.31375289  0.45632515   
	       1.000000             1.007825         -2.04263097 -2.03972918 -0.24346619   

	 - Coordinate -           - BOHR/RAD -       - ANG/DEG -
	 R(1,2)           =         2.467750           1.305877
	 R(1,3)           =         2.045022           1.082179
	 R(1,4)           =         2.045022           1.082179
	 R(2,5)           =         2.045022           1.082179
	 R(2,6)           =         2.045022           1.082179
	 B(1,2,5)         =         2.132403         122.177681
	 B(1,2,6)         =         2.132403         122.177679
	 B(2,1,3)         =         2.132403         122.177680
	 B(2,1,4)         =         2.132403         122.177679
	 B(3,1,4)         =         2.018380         115.644641
	 B(5,2,6)         =         2.018380         115.644640
	 D(3,1,2,5)       =         3.141568         179.998575
	 D(3,1,2,6)       =         0.000014           0.000826
	 D(4,1,2,5)       =        -0.000016          -0.000892
	 D(4,1,2,6)       =         3.141616         180.001359


	        --- Internal Coordinate Step in ANG or DEG, aJ/ANG or AJ/DEG ---
	-------------------------------------------------------------------------------
	           Coordinate      Previous         Force          Change          New 
	           ----------      --------        ------          ------        ------
	               R(1,2)       1.30588        0.00206        0.00016       1.30604
	               R(1,3)       1.08218       -0.00143       -0.00021       1.08197
	               R(1,4)       1.08218       -0.00143       -0.00021       1.08197
	               R(2,5)       1.08218       -0.00143       -0.00021       1.08197
	               R(2,6)       1.08218       -0.00143       -0.00021       1.08197
	             B(1,2,5)     122.17768        0.00000       -0.00027     122.17741
	             B(1,2,6)     122.17768        0.00000       -0.00027     122.17741
	             B(2,1,3)     122.17768        0.00000       -0.00027     122.17741
	             B(2,1,4)     122.17768        0.00000       -0.00027     122.17741
	             B(3,1,4)     115.64464       -0.00000        0.00055     115.64519
	             B(5,2,6)     115.64464       -0.00000        0.00055     115.64519
	           D(3,1,2,5)     179.99858        0.00000        0.00296     180.00154
	           D(3,1,2,6)       0.00083       -0.00000       -0.00175      -0.00093
	           D(4,1,2,5)      -0.00089        0.00000        0.00187       0.00098
	           D(4,1,2,6)     180.00136       -0.00000       -0.00285     179.99851
	-------------------------------------------------------------------------------

	                                 ==> Convergence Check <==                                  
    
	Measures of convergence in internal coordinates in au.
    
	Criteria marked as inactive (o), active & met (*), and active & unmet ( ).

	----------------------------------------------------------------------------------------------
	   Step    Total Energy     Delta E     Max Force     RMS Force      Max Disp      RMS Disp   
	----------------------------------------------------------------------------------------------
	  Convergence Criteria     1.00e-06 *    3.00e-04 *             o    1.20e-03 *             o
	----------------------------------------------------------------------------------------------
	     4     -77.07421094   -2.02e-06      2.50e-04 *    1.11e-04 o    3.90e-04 *    2.17e-04 o  ~
	----------------------------------------------------------------------------------------------

Next Geometry in Ang 
	Fragment 1 (Ang)

	    C   0.6443031769   0.1020389406  -0.0299035751
	    C  -0.6443010526  -0.1020442844   0.0299307510
	    H   1.3447118668  -0.6950496459  -0.2414276796
	    H   1.0809054285   1.0792039445   0.1288163670
	    H  -1.3447116121   0.6950490475   0.2414308049
	    H  -1.0809051191  -1.0792047016  -0.1288125141


    Final optimized geometry and variables:
    Molecular point group: c1
    Full point group: C1

    Geometry (in Angstrom), charge = 0, multiplicity = 1:

    C            0.644223925440     0.102028173133    -0.029908490172
    C           -0.644224171943    -0.102027558910     0.029905358728
    H            1.344771184815    -0.695211900746    -0.241457725726
    H            1.080915194048     1.079374698121     0.128854898834
    H           -1.344769684624     0.695208087453     0.241476869381
    H           -1.080913759173    -1.079378198281    -0.128836756929


Scratch directory: /tmp/
gradient() will perform analytic gradient computation.
   => Libint2 <=

    Primary   basis highest AM E, G, H:  6, 6, 3
    Auxiliary basis highest AM E, G, H:  7, 7, 4
    Onebody   basis highest AM E, G, H:  -, -, -
    Solid Harmonics ordering:            Gaussian

*** tstart() called on hpc-m36-1-1.local
*** at Mon Feb 24 03:46:59 2025

   => Loading Basis Set <=

    Name: STO-3G
    Role: ORBITAL
    Keyword: BASIS
    atoms 1-4  entry C          line    61 file /gpfs/home/gdb20/.conda/envs/CHM4411L/share/psi4/basis/sto-3g.gbs 
    atoms 5-10 entry H          line    19 file /gpfs/home/gdb20/.conda/envs/CHM4411L/share/psi4/basis/sto-3g.gbs 


         ---------------------------------------------------------
                                   SCF
               by Justin Turney, Rob Parrish, Andy Simmonett
                          and Daniel G. A. Smith
                              RHF Reference
                        1 Threads,    953 MiB Core
         ---------------------------------------------------------

  ==> Geometry <==

    Molecular point group: c1
    Full point group: C1

    Geometry (in Angstrom), charge = 0, multiplicity = 1:

       Center              X                  Y                   Z               Mass       
    ------------   -----------------  -----------------  -----------------  -----------------
         C           -1.773631981353     0.223879406764    -0.404677259324    12.000000000000
         C           -0.542421981353     0.471562406764     0.056659740676    12.000000000000
         C            0.542422018647    -0.471564593236    -0.056659259324    12.000000000000
         C            1.773632018647    -0.223877593236     0.404676740676    12.000000000000
         H           -2.030576981353    -0.709348593236    -0.895520259324     1.007825032230
         H           -2.560592981353     0.963806406764    -0.297512259324     1.007825032230
         H           -0.340597981353     1.424861406764     0.540795740676     1.007825032230
         H            0.340601018647    -1.424863593236    -0.540796259324     1.007825032230
         H            2.030573018647     0.709351406764     0.895521740676     1.007825032230
         H            2.560593018647    -0.963802593236     0.297511740676     1.007825032230

  Running in c1 symmetry.

  Rotational constants: A =      1.39164  B =      0.15036  C =      0.13570 [cm^-1]
  Rotational constants: A =  41720.36916  B =   4507.58434  C =   4068.05988 [MHz]
  Nuclear repulsion =  104.147423396902298

  Charge       = 0
  Multiplicity = 1
  Electrons    = 30
  Nalpha       = 15
  Nbeta        = 15

  ==> Algorithm <==

  SCF Algorithm Type is DF.
  DIIS enabled.
  MOM disabled.
  Fractional occupation disabled.
  Guess Type is SAD.
  Energy threshold   = 1.00e-08
  Density threshold  = 1.00e-08
  Integral threshold = 1.00e-12

  ==> Primary Basis <==

  Basis Set: STO-3G
    Blend: STO-3G
    Number of shells: 18
    Number of basis functions: 26
    Number of Cartesian functions: 26
    Spherical Harmonics?: true
    Max angular momentum: 1

   => Loading Basis Set <=

    Name: (STO-3G AUX)
    Role: JKFIT
    Keyword: DF_BASIS_SCF
    atoms 1-4  entry C          line   198 file /gpfs/home/gdb20/.conda/envs/CHM4411L/share/psi4/basis/def2-universal-jkfit.gbs 
    atoms 5-10 entry H          line    18 file /gpfs/home/gdb20/.conda/envs/CHM4411L/share/psi4/basis/def2-universal-jkfit.gbs 

  ==> Integral Setup <==

  DFHelper Memory: AOs need 0.003 GiB; user supplied 0.698 GiB. 
  Using in-core AOs.

  ==> MemDFJK: Density-Fitted J/K Matrices <==

    J tasked:                   Yes
    K tasked:                   Yes
    wK tasked:                   No
    OpenMP threads:               1
    Memory [MiB]:               715
    Algorithm:                 Core
    Schwarz Cutoff:           1E-12
    Mask sparsity (%):       0.8876
    Fitting Condition:        1E-10

   => Auxiliary Basis Set <=

  Basis Set: (STO-3G AUX)
    Blend: DEF2-UNIVERSAL-JKFIT
    Number of shells: 136
    Number of basis functions: 408
    Number of Cartesian functions: 476
    Spherical Harmonics?: true
    Max angular momentum: 4

  Minimum eigenvalue in the overlap matrix is 1.8357480010E-01.
  Reciprocal condition number of the overlap matrix is 7.7249512935E-02.
    Using symmetric orthogonalization.

  ==> Pre-Iterations <==

  SCF Guess: Superposition of Atomic Densities via on-the-fly atomic UHF (no occupation information).

   -------------------------
    Irrep   Nso     Nmo    
   -------------------------
     A         26      26 
   -------------------------
    Total      26      26
   -------------------------

  ==> Iterations <==

                           Total Energy        Delta E     RMS |[F,P]|

   @DF-RHF iter SAD:  -149.84153759686924   -1.49842e+02   0.00000e+00 
   @DF-RHF iter   1:  -153.00882418961814   -3.16729e+00   3.45017e-03 DIIS/ADIIS
   @DF-RHF iter   2:  -153.01627066553553   -7.44648e-03   9.65473e-04 DIIS/ADIIS
   @DF-RHF iter   3:  -153.01691696248145   -6.46297e-04   4.34748e-04 DIIS/ADIIS
   @DF-RHF iter   4:  -153.01702119173817   -1.04229e-04   6.48147e-05 DIIS
   @DF-RHF iter   5:  -153.01702615892529   -4.96719e-06   1.03750e-05 DIIS
   @DF-RHF iter   6:  -153.01702630211614   -1.43191e-07   8.09279e-07 DIIS
   @DF-RHF iter   7:  -153.01702630268269   -5.66558e-10   6.77277e-08 DIIS
   @DF-RHF iter   8:  -153.01702630268562   -2.92744e-12   1.96999e-08 DIIS
   @DF-RHF iter   9:  -153.01702630268579   -1.70530e-13   4.14551e-09 DIIS
  Energy and wave function converged.


  ==> Post-Iterations <==

    Orbital Energies [Eh]
    ---------------------

    Doubly Occupied:                                                      

       1A    -11.030663     2A    -11.030584     3A    -11.016374  
       4A    -11.016362     5A     -1.035974     6A     -0.942204  
       7A     -0.771587     8A     -0.707713     9A     -0.591166  
      10A     -0.590739    11A     -0.498454    12A     -0.491066  
      13A     -0.443014    14A     -0.398865    15A     -0.260888  

    Virtual:                                                              

      16A      0.242866    17A      0.420721    18A      0.592866  
      19A      0.673731    20A      0.684269    21A      0.696479  
      22A      0.698739    23A      0.880219    24A      0.910247  
      25A      1.025015    26A      1.077907  

    Final Occupation by Irrep:
              A 
    DOCC [    15 ]
    NA   [    15 ]
    NB   [    15 ]

  @DF-RHF Final Energy:  -153.01702630268579

   => Energetics <=

    Nuclear Repulsion Energy =            104.1474233969022976
    One-Electron Energy =                -412.6775914902228237
    Two-Electron Energy =                 155.5131417906347338
    Total Energy =                       -153.0170263026857924

Computation Completed


Properties will be evaluated at   0.000000,   0.000000,   0.000000 [a0]

Properties computed using the SCF density matrix


 Multipole Moments:

 ------------------------------------------------------------------------------------
     Multipole            Electronic (a.u.)      Nuclear  (a.u.)        Total (a.u.)
 ------------------------------------------------------------------------------------

 L = 1.  Multiply by 2.5417464519 to convert [e a0] to [Debye]
 Dipole X            :          0.0000013           -0.0000008            0.0000005
 Dipole Y            :         -0.0000044            0.0000042           -0.0000002
 Dipole Z            :         -0.0000002            0.0000004            0.0000002
 Magnitude           :                                                    0.0000005

 ------------------------------------------------------------------------------------

*** tstop() called on hpc-m36-1-1.local at Mon Feb 24 03:47:00 2025
Module time:
	user time   =       0.55 seconds =       0.01 minutes
	system time =       0.01 seconds =       0.00 minutes
	total time  =          1 seconds =       0.02 minutes
Total time:
	user time   =       2.86 seconds =       0.05 minutes
	system time =       0.15 seconds =       0.00 minutes
	total time  =          4 seconds =       0.07 minutes

*** tstart() called on hpc-m36-1-1.local
*** at Mon Feb 24 03:47:00 2025


         ------------------------------------------------------------
                                   SCF GRAD                          
                          Rob Parrish, Justin Turney,                
                       Andy Simmonett, and Alex Sokolov              
         ------------------------------------------------------------

  ==> Geometry <==

    Molecular point group: c1
    Full point group: C1

    Geometry (in Angstrom), charge = 0, multiplicity = 1:

       Center              X                  Y                   Z               Mass       
    ------------   -----------------  -----------------  -----------------  -----------------
         C           -1.773631981353     0.223879406764    -0.404677259324    12.000000000000
         C           -0.542421981353     0.471562406764     0.056659740676    12.000000000000
         C            0.542422018647    -0.471564593236    -0.056659259324    12.000000000000
         C            1.773632018647    -0.223877593236     0.404676740676    12.000000000000
         H           -2.030576981353    -0.709348593236    -0.895520259324     1.007825032230
         H           -2.560592981353     0.963806406764    -0.297512259324     1.007825032230
         H           -0.340597981353     1.424861406764     0.540795740676     1.007825032230
         H            0.340601018647    -1.424863593236    -0.540796259324     1.007825032230
         H            2.030573018647     0.709351406764     0.895521740676     1.007825032230
         H            2.560593018647    -0.963802593236     0.297511740676     1.007825032230

  Nuclear repulsion =  104.147423396902298

  ==> Basis Set <==

  Basis Set: STO-3G
    Blend: STO-3G
    Number of shells: 18
    Number of basis functions: 26
    Number of Cartesian functions: 26
    Spherical Harmonics?: true
    Max angular momentum: 1

  ==> DFJKGrad: Density-Fitted SCF Gradients <==

    Gradient:                    1
    J tasked:                  Yes
    K tasked:                  Yes
    wK tasked:                  No
    OpenMP threads:              1
    Integrals threads:           1
    Memory [MiB]:              715
    Schwarz Cutoff:          1E-12
    Fitting Condition:       1E-10

   => Auxiliary Basis Set <=

  Basis Set: (STO-3G AUX)
    Blend: DEF2-UNIVERSAL-JKFIT
    Number of shells: 136
    Number of basis functions: 408
    Number of Cartesian functions: 476
    Spherical Harmonics?: true
    Max angular momentum: 4


  -Total Gradient:
     Atom            X                  Y                   Z
    ------   -----------------  -----------------  -----------------
       1       -0.027459351410    -0.011881032529    -0.013134413465
       2        0.064524424814    -0.013341812534     0.012395754172
       3       -0.064524953553     0.013341257546    -0.012395764855
       4        0.027460836183     0.011880182955     0.013133926536
       5       -0.000392951665    -0.003410191250    -0.001638210437
       6       -0.000506740977     0.004703967964     0.001961205792
       7       -0.001646734847     0.004303303270     0.001457350673
       8        0.001646925998    -0.004303233927    -0.001457372894
       9        0.000392896085     0.003410887239     0.001638676152
      10        0.000505649371    -0.004703328734    -0.001961151674


*** tstop() called on hpc-m36-1-1.local at Mon Feb 24 03:47:00 2025
Module time:
	user time   =       0.18 seconds =       0.00 minutes
	system time =       0.01 seconds =       0.00 minutes
	total time  =          0 seconds =       0.00 minutes
Total time:
	user time   =       3.04 seconds =       0.05 minutes
	system time =       0.16 seconds =       0.00 minutes
	total time  =          4 seconds =       0.07 minutes

    			-----------------------------------------

    			 OPTKING 3.0: for geometry optimizations 

    			     By R.A. King, Bethel University     

    			        with contributions from          

    			    A.V. Copan, J. Cayton, A. Heide      

    			-----------------------------------------

    
	                            ===> Fragment 1 <== 

	 Z (Atomic Numbers)          Masses                          Geom                  
	       6.000000            12.000000         -3.35167869  0.42307076 -0.76472919   
	       6.000000            12.000000         -1.02502899  0.89112380  0.10707139   
	       6.000000            12.000000          1.02502906 -0.89112793 -0.10707048   
	       6.000000            12.000000          3.35167876 -0.42306734  0.76472821   
	       1.000000             1.007825         -3.83723437 -1.34047457 -1.69228803   
	       1.000000             1.007825         -4.83881945  1.82133015 -0.56221669   
	       1.000000             1.007825         -0.64363690  2.69259783  1.02195584   
	       1.000000             1.007825          0.64364264 -2.69260196 -1.02195682   
[...]
      4   C               -0.02 -0.01  0.04    0.02  0.06 -0.01    0.04  0.15 -0.02   
      5   C                0.02  0.02 -0.05    0.07  0.02  0.01    0.01 -0.03  0.01   
      6   C                0.00 -0.03 -0.05    0.05 -0.05  0.01   -0.02 -0.02 -0.01   
      7   H                0.03  0.35  0.05    0.08  0.19  0.02   -0.13 -0.39 -0.05   
      8   H               -0.10 -0.33 -0.05    0.12  0.32  0.04   -0.14 -0.39 -0.05   
      9   H                0.02 -0.02 -0.03    0.37  0.07 -0.03   -0.16 -0.06  0.02   
     10   H                0.02  0.00 -0.03    0.24 -0.28 -0.01    0.09 -0.15 -0.01   
     11   H               -0.19 -0.29  0.08   -0.06 -0.20  0.04   -0.14 -0.38  0.08   
     12   H                0.12  0.32 -0.07   -0.11 -0.32  0.07   -0.13 -0.39  0.08   
     13   H                0.35  0.17 -0.04   -0.18 -0.04 -0.01    0.12 -0.03  0.03   
     14   H               -0.29 -0.05 -0.03   -0.38 -0.07 -0.03   -0.25 -0.11  0.07   
     15   H                0.17 -0.35 -0.02   -0.12  0.14 -0.02   -0.11  0.05 -0.03   
     16   H               -0.20  0.22 -0.05   -0.26  0.28 -0.05    0.13 -0.24 -0.06   

  Vibration                       31                  32                  33          
  Freq [cm^-1]                1682.5522           1687.0429           1696.4178       
  Irrep                           A                   A                   A           
  Reduced mass [u]              1.5814              1.9872              1.7402        
  Force const [mDyne/A]         2.6377              3.3323              2.9506        
  Turning point v=0 [a0]        0.2127              0.1895              0.2020        
  RMS dev v=0 [a0 u^1/2]        0.1892              0.1889              0.1884        
  IR activ [km/mol]            10.5596              0.5313              1.9441        
  Char temp [K]               2420.8180           2427.2791           2440.7675       
  ----------------------------------------------------------------------------------
      1   C                0.00 -0.09 -0.00    0.07  0.11  0.00    0.03 -0.03  0.02   
      2   C               -0.04 -0.00  0.01   -0.12 -0.10  0.01    0.01  0.00  0.00   
      3   C               -0.03  0.03  0.01   -0.03  0.15 -0.00   -0.01  0.01 -0.00   
      4   C                0.06  0.07 -0.01   -0.01 -0.14  0.01   -0.04 -0.01 -0.02   
      5   C               -0.11 -0.07 -0.01   -0.00  0.04  0.00    0.18  0.00  0.01   
      6   C               -0.04  0.12 -0.02   -0.03 -0.03  0.01   -0.14  0.11 -0.01   
      7   H                0.14  0.24  0.04   -0.03 -0.28 -0.03    0.01  0.10  0.01   
      8   H                0.13  0.10 -0.05   -0.04 -0.25 -0.06    0.01 -0.19 -0.05   
      9   H                0.30  0.07 -0.03    0.53  0.01 -0.03    0.05  0.01 -0.01   
     10   H                0.19 -0.24 -0.02    0.41 -0.34 -0.02   -0.03  0.03  0.01   
     11   H               -0.03 -0.27  0.06    0.15  0.23 -0.05    0.05  0.08 -0.01   
     12   H                0.04 -0.17 -0.04    0.12  0.22 -0.08   -0.12 -0.15  0.06   
     13   H                0.31  0.06  0.02   -0.05 -0.07  0.01   -0.59 -0.10 -0.05   
     14   H                0.40 -0.00  0.13    0.13  0.08 -0.02   -0.20 -0.09  0.06   
     15   H                0.21 -0.23  0.03    0.01  0.08  0.00    0.40 -0.44  0.07   
     16   H                0.32 -0.23  0.14    0.05 -0.14 -0.02    0.10 -0.20 -0.05   

  Vibration                       34                  35                  36          
  Freq [cm^-1]                1820.4884           1820.9774           1830.6812       
  Irrep                           A                   A                   A           
  Reduced mass [u]              1.0989              1.0816              1.1195        
  Force const [mDyne/A]         2.1458              2.1131              2.2106        
  Turning point v=0 [a0]        0.2453              0.2472              0.2424        
  RMS dev v=0 [a0 u^1/2]        0.1818              0.1818              0.1813        
  IR activ [km/mol]             0.0893              0.2382              0.1868        
  Char temp [K]               2619.2775           2619.9810           2633.9426       
  ----------------------------------------------------------------------------------
      1   C                0.05 -0.01 -0.02   -0.03  0.01  0.01   -0.05  0.02  0.02   
      2   C               -0.01 -0.00  0.00   -0.00  0.00  0.00    0.01  0.01  0.00   
      3   C                0.01 -0.01  0.00   -0.00 -0.00  0.00    0.00 -0.01  0.00   
      4   C               -0.05  0.02  0.02   -0.03  0.01  0.01   -0.05  0.02  0.02   
      5   C                0.01 -0.02  0.02    0.01 -0.03  0.03    0.01  0.04 -0.03   
      6   C               -0.02 -0.02 -0.02    0.02  0.02  0.03   -0.02 -0.03 -0.02   
      7   H               -0.37  0.14 -0.17    0.27 -0.12  0.12    0.32 -0.13  0.15   
      8   H               -0.23  0.03  0.36    0.17 -0.03 -0.26    0.20 -0.05 -0.33   
      9   H                0.01  0.00 -0.00   -0.01  0.00  0.00   -0.05 -0.00  0.00   
     10   H               -0.01  0.01  0.00   -0.01  0.00  0.00   -0.04  0.03  0.00   
     11   H                0.38 -0.10  0.17    0.29 -0.06  0.12    0.34 -0.08  0.15   
     12   H                0.20 -0.14 -0.35    0.15 -0.10 -0.26    0.18 -0.11 -0.32   
     13   H               -0.04  0.25 -0.00   -0.08  0.38 -0.00    0.06 -0.31  0.00   
     14   H               -0.01  0.04 -0.25    0.02  0.07 -0.38   -0.06 -0.06  0.31   
     15   H                0.19  0.17 -0.01   -0.30 -0.24  0.02    0.23  0.21 -0.02   
     16   H                0.04  0.04  0.24   -0.04 -0.09 -0.37   -0.01  0.11  0.30   

  Vibration                       37                  38                  39          
  Freq [cm^-1]                1842.4367           2097.4179           3589.1331       
  Irrep                           A                   A                   A           
  Reduced mass [u]              1.1215              6.7354              1.0665        
  Force const [mDyne/A]         2.2430             17.4575              8.0942        
  Turning point v=0 [a0]        0.2414              0.0923              0.1774        
  RMS dev v=0 [a0 u^1/2]        0.1808              0.1694              0.1295        
  IR activ [km/mol]             0.0038              1.2559              0.0958        
  Char temp [K]               2650.8562           3017.7174           5163.9635       
  ----------------------------------------------------------------------------------
      1   C               -0.03  0.02  0.01   -0.06 -0.00  0.01    0.04 -0.01 -0.02   
      2   C                0.00  0.00  0.00    0.50 -0.09 -0.04   -0.00  0.00  0.00   
      3   C               -0.00  0.00 -0.00   -0.45  0.23  0.04    0.00  0.00 -0.00   
      4   C                0.03 -0.00 -0.01    0.05 -0.04 -0.00   -0.04  0.02  0.02   
      5   C                0.01 -0.05  0.04   -0.01  0.01  0.00    0.00 -0.00  0.00   
      6   C               -0.04 -0.03 -0.04    0.01 -0.00 -0.00   -0.00 -0.00 -0.00   
      7   H                0.21 -0.10  0.10   -0.13 -0.07 -0.02   -0.18  0.01  0.51   
      8   H                0.12 -0.06 -0.22   -0.17 -0.12  0.05   -0.32  0.15 -0.27   
      9   H               -0.02 -0.00  0.00   -0.24 -0.33  0.03    0.01 -0.02 -0.00   
     10   H                0.01 -0.01 -0.00   -0.02 -0.41  0.00   -0.02 -0.01  0.00   
     11   H               -0.23  0.04 -0.09    0.06 -0.13  0.02    0.14 -0.14 -0.50   
     12   H               -0.12  0.05  0.22    0.05 -0.20 -0.04    0.35 -0.06  0.26   
     13   H               -0.08  0.42 -0.00    0.01  0.01  0.00    0.01 -0.00 -0.04   
     14   H                0.00  0.06 -0.42    0.05  0.03 -0.02   -0.01  0.06  0.01   
     15   H                0.32  0.28 -0.02   -0.00  0.01 -0.00   -0.01  0.00  0.04   
     16   H                0.04  0.08  0.42   -0.02  0.05  0.02    0.05  0.04 -0.02   

  Vibration                       40                  41                  42          
  Freq [cm^-1]                3589.4264           3607.1946           3610.5879       
  Irrep                           A                   A                   A           
  Reduced mass [u]              1.0668              1.0652              1.0696        
  Force const [mDyne/A]         8.0982              8.1659              8.2157        
  Turning point v=0 [a0]        0.1773              0.1770              0.1766        
  RMS dev v=0 [a0 u^1/2]        0.1295              0.1292              0.1291        
  IR activ [km/mol]             8.6899              4.2393              4.0882        
  Char temp [K]               5164.3854           5189.9499           5194.8320       
  ----------------------------------------------------------------------------------
      1   C                0.04 -0.01 -0.02   -0.00  0.00  0.00    0.00 -0.00 -0.01   
      2   C               -0.00  0.00  0.00    0.00 -0.00  0.00   -0.00  0.00 -0.00   
      3   C               -0.00 -0.00  0.00    0.00  0.00  0.00    0.00  0.00  0.00   
      4   C                0.04 -0.02 -0.02   -0.00  0.00  0.00   -0.00  0.00  0.01   
      5   C               -0.00  0.00 -0.00   -0.00  0.04 -0.03   -0.01  0.04 -0.04   
      6   C               -0.00 -0.00 -0.00   -0.03 -0.03 -0.03    0.03  0.03  0.03   
      7   H               -0.18  0.01  0.51    0.02  0.00 -0.05   -0.02 -0.00  0.07   
      8   H               -0.32  0.15 -0.27    0.01 -0.01  0.01   -0.02  0.01 -0.01   
      9   H                0.00 -0.02 -0.00   -0.00  0.01  0.00    0.00 -0.01  0.00   
     10   H                0.02  0.01 -0.00   -0.00 -0.00  0.00   -0.01 -0.01  0.00   
     11   H               -0.14  0.14  0.50    0.01 -0.02 -0.05    0.02 -0.02 -0.07   
     12   H               -0.36  0.06 -0.26    0.01 -0.00  0.01    0.02 -0.00  0.01   
     13   H               -0.00  0.00  0.03   -0.04  0.04  0.49   -0.05  0.04  0.52   
     14   H                0.01 -0.05 -0.01    0.10 -0.48 -0.12    0.09 -0.45 -0.11   
     15   H               -0.00  0.00  0.03   -0.04  0.03  0.49    0.05 -0.03 -0.52   
     16   H                0.04  0.03 -0.01    0.37  0.31 -0.15   -0.35 -0.29  0.14   

  Vibration                       43                  44                  45          
  Freq [cm^-1]                3692.6335           3699.0684           3699.2312       
  Irrep                           A                   A                   A           
  Reduced mass [u]              1.0892              1.1078              1.1086        
  Force const [mDyne/A]         8.7502              8.9306              8.9380        
  Turning point v=0 [a0]        0.1730              0.1714              0.1713        
  RMS dev v=0 [a0 u^1/2]        0.1277              0.1276              0.1276        
  IR activ [km/mol]            17.0788              3.5286              0.0055        
  Char temp [K]               5312.8774           5322.1358           5322.3701       
  ----------------------------------------------------------------------------------
      1   C                0.00  0.00 -0.01   -0.02  0.01 -0.06    0.02 -0.02  0.06   
      2   C                0.01 -0.06 -0.00   -0.00  0.01  0.00   -0.00  0.00 -0.00   
      3   C                0.04  0.04 -0.00   -0.00 -0.00  0.00    0.00  0.00  0.00   
      4   C               -0.00 -0.00 -0.01   -0.03 -0.00 -0.06   -0.03 -0.00 -0.06   
      5   C               -0.00  0.00  0.00   -0.00  0.01  0.01   -0.00  0.01  0.00   
      6   C               -0.00  0.00  0.00   -0.00 -0.00  0.01    0.00  0.00 -0.00   
      7   H               -0.02 -0.00  0.05   -0.15  0.01  0.41    0.15 -0.01 -0.41   
      8   H                0.03 -0.01  0.02    0.40 -0.18  0.32   -0.40  0.19 -0.32   
      9   H               -0.14  0.69  0.01    0.01 -0.07 -0.00    0.01 -0.03 -0.00   
     10   H               -0.53 -0.46  0.05    0.05  0.04 -0.01   -0.02 -0.02  0.00   
     11   H               -0.01  0.02  0.05   -0.12  0.12  0.40   -0.12  0.12  0.41   
     12   H                0.03 -0.00  0.02    0.43 -0.08  0.31    0.44 -0.08  0.32   
     13   H                0.00 -0.00 -0.01    0.00 -0.01 -0.05   -0.00 -0.00 -0.02   
     14   H                0.00 -0.01 -0.00    0.02 -0.07 -0.02    0.01 -0.06 -0.01   
     15   H                0.00 -0.00 -0.01    0.00 -0.00 -0.05   -0.00 -0.00  0.02   
     16   H                0.01  0.00 -0.00    0.06  0.05 -0.02   -0.05 -0.04  0.02   

  Vibration                       46                  47                  48          
  Freq [cm^-1]                3721.8271           3723.4460           3729.2015       
  Irrep                           A                   A                   A           
  Reduced mass [u]              1.1064              1.1104              1.1102        
  Force const [mDyne/A]         9.0294              9.0707              9.0970        
  Turning point v=0 [a0]        0.1710              0.1706              0.1705        
  RMS dev v=0 [a0 u^1/2]        0.1272              0.1272              0.1271        
  IR activ [km/mol]             3.9732              0.2644              5.8734        
  Char temp [K]               5354.8805           5357.2097           5365.4907       
  ----------------------------------------------------------------------------------
      1   C                0.00 -0.00  0.00   -0.00 -0.00  0.00   -0.00  0.00 -0.01   
      2   C                0.02 -0.05 -0.00   -0.01  0.03  0.00    0.00 -0.00 -0.00   
      3   C               -0.05 -0.03  0.00    0.03  0.02 -0.00    0.00  0.00 -0.00   
      4   C               -0.00  0.00 -0.00    0.00 -0.00 -0.00   -0.00 -0.00 -0.01   
      5   C                0.01 -0.02 -0.03    0.01 -0.04 -0.04    0.01 -0.04 -0.05   
      6   C               -0.02 -0.01  0.03   -0.03 -0.02  0.05    0.03  0.02 -0.05   
      7   H                0.01 -0.00 -0.03    0.02 -0.00 -0.04   -0.02  0.00  0.06   
      8   H               -0.04  0.02 -0.03   -0.01  0.01 -0.01    0.04 -0.02  0.04   
      9   H               -0.12  0.59  0.01    0.07 -0.35 -0.00   -0.00  0.00 -0.00   
     10   H                0.46  0.39 -0.04   -0.27 -0.23  0.03   -0.00 -0.00 -0.00   
     11   H               -0.01  0.01  0.03   -0.01  0.01  0.04   -0.02  0.02  0.06   
     12   H                0.04 -0.01  0.03    0.01 -0.00  0.01    0.05 -0.01  0.04   
     13   H               -0.02  0.02  0.24   -0.04  0.03  0.40   -0.04  0.03  0.50   
     14   H               -0.05  0.24  0.06   -0.09  0.43  0.10   -0.10  0.46  0.11   
     15   H                0.02 -0.02 -0.24    0.04 -0.03 -0.40   -0.04  0.03  0.50   
     16   H                0.19  0.16 -0.07    0.33  0.28 -0.13   -0.36 -0.30  0.14   

  ==> Thermochemistry Components <==

  Entropy, S
    Electronic S                             0.000 [cal/(mol K)]        0.000 [J/(mol K)]       0.00000000 [mEh/K] (multiplicity = 1)
    Translational S                         39.129 [cal/(mol K)]      163.717 [J/(mol K)]       0.06235649 [mEh/K] (mol. weight = 82.0783 [u], P = 101325.00 [Pa])
    Rotational S                            26.190 [cal/(mol K)]      109.579 [J/(mol K)]       0.04173644 [mEh/K] (symmetry no. = 1)
    Vibrational S                            6.937 [cal/(mol K)]       29.026 [J/(mol K)]       0.01105542 [mEh/K]
  Total S                                   72.257 [cal/(mol K)]      302.322 [J/(mol K)]       0.11514835 [mEh/K]
  Correction S                               0.000 [cal/(mol K)]        0.000 [J/(mol K)]       0.00000000 [mEh/K]

  Constant volume heat capacity, Cv
    Electronic Cv                            0.000 [cal/(mol K)]        0.000 [J/(mol K)]       0.00000000 [mEh/K]
    Translational Cv                         2.981 [cal/(mol K)]       12.472 [J/(mol K)]       0.00475022 [mEh/K]
    Rotational Cv                            2.981 [cal/(mol K)]       12.472 [J/(mol K)]       0.00475022 [mEh/K]
    Vibrational Cv                          11.899 [cal/(mol K)]       49.784 [J/(mol K)]       0.01896173 [mEh/K]
  Total Cv                                  17.860 [cal/(mol K)]       74.727 [J/(mol K)]       0.02846216 [mEh/K]
  Correction Cv                              0.000 [cal/(mol K)]        0.000 [J/(mol K)]       0.00000000 [mEh/K]

  Constant pressure heat capacity, Cp
    Electronic Cp                            0.000 [cal/(mol K)]        0.000 [J/(mol K)]       0.00000000 [mEh/K]
    Translational Cp                         4.968 [cal/(mol K)]       20.786 [J/(mol K)]       0.00791703 [mEh/K]
    Rotational Cp                            2.981 [cal/(mol K)]       12.472 [J/(mol K)]       0.00475022 [mEh/K]
    Vibrational Cp                          11.899 [cal/(mol K)]       49.784 [J/(mol K)]       0.01896173 [mEh/K]
  Total Cp                                  19.847 [cal/(mol K)]       83.042 [J/(mol K)]       0.03162897 [mEh/K]
  Correction Cp                              0.000 [cal/(mol K)]        0.000 [J/(mol K)]       0.00000000 [mEh/K]

  ==> Thermochemistry Energy Analysis <==

  Raw electronic energy, E_e
  Total E_e, Electronic energy at well bottom                                          -230.26184542 [Eh]

  Zero-point vibrational energy, ZPVE = Sum_i omega_i / 2,  E_0 = E_e + ZPVE
    Vibrational ZPVE                       109.602 [kcal/mol]      458.575 [kJ/mol]       0.17466196 [Eh]       38333.870 [cm^-1]
  Correction ZPVE to E_e                   109.602 [kcal/mol]      458.575 [kJ/mol]       0.17466196 [Eh]       38333.870 [cm^-1]
  Total E_0, Enthalpy at 0 [K]                                                         -230.08718346 [Eh]
  *** Absolute enthalpy, not an enthalpy of formation ***

  Thermal (internal) energy, E (includes ZPVE and finite-temperature corrections)
    Electronic contrib to E beyond E_e       0.000 [kcal/mol]        0.000 [kJ/mol]       0.00000000 [Eh]
    Translational contrib to E               0.889 [kcal/mol]        3.718 [kJ/mol]       0.00141628 [Eh]
    Rotational contrib to E                  0.889 [kcal/mol]        3.718 [kJ/mol]       0.00141628 [Eh]
    Vibrational contrib to E               110.939 [kcal/mol]      464.168 [kJ/mol]       0.17679240 [Eh]
  Correction E                             112.716 [kcal/mol]      471.605 [kJ/mol]       0.17962495 [Eh]
  Total E, Thermal (internal) energy at  298.15 [K]                                    -230.08222047 [Eh]

  Enthalpy, H_trans = E_trans + k_B * T = E_trans + P * V
    Electronic contrib to H beyond E_e       0.000 [kcal/mol]        0.000 [kJ/mol]       0.00000000 [Eh]
    Translational contrib to H               1.481 [kcal/mol]        6.197 [kJ/mol]       0.00236046 [Eh]
    Rotational contrib to H                  0.889 [kcal/mol]        3.718 [kJ/mol]       0.00141628 [Eh]
    Vibrational contrib to H               110.939 [kcal/mol]      464.168 [kJ/mol]       0.17679240 [Eh]
  Correction H                             113.309 [kcal/mol]      474.084 [kJ/mol]       0.18056914 [Eh]
  Total H, Enthalpy at  298.15 [K]                                                     -230.08127629 [Eh]
  *** Absolute enthalpy, not an enthalpy of formation ***

  Gibbs free energy, G = H - T * S
    Electronic contrib to G beyond E_e       0.000 [kcal/mol]        0.000 [kJ/mol]       0.00000000 [Eh]
    Translational contrib to G             -10.185 [kcal/mol]      -42.615 [kJ/mol]      -0.01623113 [Eh]
    Rotational contrib to G                 -6.920 [kcal/mol]      -28.953 [kJ/mol]      -0.01102744 [Eh]
    Vibrational contrib to G               108.871 [kcal/mol]      455.514 [kJ/mol]       0.17349622 [Eh]
  Correction G                              91.766 [kcal/mol]      383.947 [kJ/mol]       0.14623766 [Eh]
  Total G, Gibbs energy at  298.15 [K]                                                 -230.11560777 [Eh]
  *** Absolute Gibbs energy, not a free energy of formation ***


  Memory set to 953.674 MiB by Python driver.
