
Host: hpc-m36-1-4.local

Timers On : Sun Mar 23 11:49:16 2025
Timers Off: Sun Mar 23 11:50:22 2025

Wall Time:       65.57 seconds

                                                       Time (seconds)
Module                                       User      System        Wall        Calls

--------------------------------------------------------------------------------------

**************************************************************************************
