
    -----------------------------------------------------------------------
          Psi4: An Open-Source Ab Initio Electronic Structure Package
                               Psi4 1.9.1 release

                         Git: Rev {} zzzzzzz 


    D. G. A. Smith, L. A. Burns, A. C. Simmonett, R. M. Parrish,
    M. C. Schieber, R. Galvelis, P. Kraus, H. Kruse, R. Di Remigio,
    A. Alenaizan, A. M. James, S. Lehtola, J. P. Misiewicz, M. Scheurer,
    R. A. Shaw, J. B. Schriber, Y. Xie, Z. L. Glick, D. A. Sirianni,
    J. S. O'Brien, J. M. Waldrop, A. Kumar, E. G. Hohenstein,
    B. P. Pritchard, B. R. Brooks, H. F. Schaefer III, A. Yu. Sokolov,
    K. Patkowski, A. E. DePrince III, U. Bozkaya, R. A. King,
    F. A. Evangelista, J. M. Turney, T. D. Crawford, C. D. Sherrill,
    J. Chem. Phys. 152(18) 184108 (2020). https://doi.org/10.1063/5.0006002

                            Additional Code Authors
    E. T. Seidl, C. L. Janssen, E. F. Valeev, M. L. Leininger,
    J. F. Gonthier, R. M. Richard, H. R. McAlexander, M. Saitow, X. Wang,
    P. Verma, M. H. Lechner, A. Jiang, S. Behnle, A. G. Heide,
    M. F. Herbst, and D. L. Poole

             Previous Authors, Complete List of Code Contributors,
                       and Citations for Specific Modules
    https://github.com/psi4/psi4/blob/master/codemeta.json
    https://github.com/psi4/psi4/graphs/contributors
    http://psicode.org/psi4manual/master/introduction.html#citing-psifour

    -----------------------------------------------------------------------


    Psi4 started on: Monday, 03 March 2025 07:48AM

    Process ID: 2039653
    Host:       hpc-m36-4-9.local
    PSIDATADIR: /gpfs/home/gdb20/.conda/envs/CHM4411L/share/psi4
    Memory:     953.7 MiB
    Threads:    1
    
Scratch directory: /tmp/
   => Libint2 <=

    Primary   basis highest AM E, G, H:  6, 6, 3
    Auxiliary basis highest AM E, G, H:  7, 7, 4
    Onebody   basis highest AM E, G, H:  -, -, -
    Solid Harmonics ordering:            Gaussian

*** tstart() called on hpc-m36-4-9.local
*** at Mon Mar  3 08:11:09 2025

   => Loading Basis Set <=

    Name: 6-31G(D)
    Role: ORBITAL
    Keyword: BASIS
    atoms 1-8  entry C          line   111 file /gpfs/home/gdb20/.conda/envs/CHM4411L/share/psi4/basis/6-31g_d_.gbs 
    atoms 9-16 entry H          line    44 file /gpfs/home/gdb20/.conda/envs/CHM4411L/share/psi4/basis/6-31g_d_.gbs 


         ---------------------------------------------------------
                                   SCF
               by Justin Turney, Rob Parrish, Andy Simmonett
                          and Daniel G. A. Smith
                              UKS Reference
                        1 Threads,    953 MiB Core
         ---------------------------------------------------------

  ==> Geometry <==

    Molecular point group: c1
    Full point group: C1

    Geometry (in Angstrom), charge = 0, multiplicity = 1:

       Center              X                  Y                   Z               Mass       
    ------------   -----------------  -----------------  -----------------  -----------------
         C           -0.773167990315     0.503213577478     1.044061086261    12.000000000000
         C            0.616279009685     0.667087577478     1.056537086261    12.000000000000
         C            1.396975009685     0.164762577478     0.012543086261    12.000000000000
         C            2.841364009685     0.335116577478     0.025513086261    12.000000000000
         C            0.773168009685    -0.503212422522    -1.044060913739    12.000000000000
         C           -0.616278990315    -0.667087422522    -1.056536913739    12.000000000000
         C           -1.396974990315    -0.164762422522    -0.012543913739    12.000000000000
         C           -2.841363990315    -0.335117422522    -0.025512913739    12.000000000000
         H           -1.358369990315     0.903348577478     1.868352086261     1.007825032230
         H            1.077649009685     1.190657577478     1.890225086261     1.007825032230
         H            3.443065009685    -0.055544422522    -0.785314913739     1.007825032230
         H            3.321222009685     0.853333577478     0.846055086261     1.007825032230
         H            1.358370009685    -0.903348422522    -1.868351913739     1.007825032230
         H           -1.077649990315    -1.190657422522    -1.890224913739     1.007825032230
         H           -3.321220990315    -0.853340422522    -0.846051913739     1.007825032230
         H           -3.443065990315     0.055543577478     0.785315086261     1.007825032230

  Running in c1 symmetry.

  Rotational constants: A =      0.18334  B =      0.05263  C =      0.04089 [cm^-1]
  Rotational constants: A =   5496.44821  B =   1577.94105  C =   1225.98163 [MHz]
  Nuclear repulsion =  320.853636277245982

  Charge       = 0
  Multiplicity = 1
  Electrons    = 56
  Nalpha       = 28
  Nbeta        = 28

  ==> Algorithm <==

  SCF Algorithm Type is DF.
  DIIS enabled.
  MOM disabled.
  Fractional occupation disabled.
  Guess Type is SAD.
  Energy threshold   = 1.00e-06
  Density threshold  = 1.00e-06
  Integral threshold = 1.00e-12

  ==> Primary Basis <==

  Basis Set: 6-31G(D)
    Blend: 6-31G(D)
    Number of shells: 64
    Number of basis functions: 136
    Number of Cartesian functions: 136
    Spherical Harmonics?: false
    Max angular momentum: 2

  ==> DFT Potential <==

   => LibXC <=

    Version 6.2.2
    S. Lehtola, C. Steigemann, M. J.T. Oliveira, and M. A.L. Marques.,  SoftwareX 7, 1–5 (2018) (10.1016/j.softx.2017.11.002)

   => Composite Functional: B3LYP <= 

    B3LYP Hyb-GGA Exchange-Correlation Functional

    P. J. Stephens, F. J. Devlin, C. F. Chabalowski, and M. J. Frisch.,  J. Phys. Chem. 98, 11623 (1994) (10.1021/j100096a001)

    Deriv               =              1
    GGA                 =           TRUE
    Meta                =          FALSE

    Exchange Hybrid     =           TRUE
    MP2 Hybrid          =          FALSE

   => Exchange Functionals <=

    0.0800   Slater exchange
    0.7200         Becke 88

   => Exact (HF) Exchange <=

    0.2000               HF 

   => Correlation Functionals <=

    0.1900   Vosko, Wilk & Nusair (VWN5_RPA)
    0.8100   Lee, Yang & Parr

   => LibXC Density Thresholds  <==

    XC_HYB_GGA_XC_B3LYP:  1.00E-15 

   => Molecular Quadrature <=

    Radial Scheme          =       TREUTLER
    Pruning Scheme         =           NONE
    Nuclear Scheme         =       TREUTLER

    Blocking Scheme        =         OCTREE
    BS radius alpha        =              1
    Pruning alpha          =              1
    Radial Points          =             75
    Spherical Points       =            302
    Total Points           =         335438
    Total Blocks           =           2532
    Max Points             =            256
    Max Functions          =            132
    Weights Tolerance      =       1.00E-15

   => Loading Basis Set <=

    Name: (6-31G(D) AUX)
    Role: JKFIT
    Keyword: DF_BASIS_SCF
    atoms 1-8  entry C          line   121 file /gpfs/home/gdb20/.conda/envs/CHM4411L/share/psi4/basis/cc-pvdz-jkfit.gbs 
    atoms 9-16 entry H          line    51 file /gpfs/home/gdb20/.conda/envs/CHM4411L/share/psi4/basis/cc-pvdz-jkfit.gbs 

  ==> Integral Setup <==

  DFHelper Memory: AOs need 0.122 GiB; user supplied 0.122 GiB. 
  Using in-core AOs.

  ==> MemDFJK: Density-Fitted J/K Matrices <==

    J tasked:                   Yes
    K tasked:                   Yes
    wK tasked:                   No
    OpenMP threads:               1
    Memory [MiB]:               125
    Algorithm:                 Core
    Schwarz Cutoff:           1E-12
    Mask sparsity (%):       3.4818
    Fitting Condition:        1E-10

   => Auxiliary Basis Set <=

  Basis Set: (6-31G(D) AUX)
    Blend: CC-PVDZ-JKFIT
    Number of shells: 264
    Number of basis functions: 848
    Number of Cartesian functions: 848
    Spherical Harmonics?: false
    Max angular momentum: 3

  Cached 50.0% of DFT collocation blocks in 0.483 [GiB].

  Minimum eigenvalue in the overlap matrix is 4.3101621680E-04.
  Reciprocal condition number of the overlap matrix is 5.5465111085E-05.
    Using symmetric orthogonalization.

  ==> Pre-Iterations <==

  SCF Guess: Superposition of Atomic Densities via on-the-fly atomic UHF (no occupation information).

   -------------------------
    Irrep   Nso     Nmo    
   -------------------------
     A        136     136 
   -------------------------
    Total     136     136
   -------------------------

  ==> Iterations <==

                           Total Energy        Delta E     RMS |[F,P]|

   @DF-UKS iter SAD:  -308.85138155340849   -3.08851e+02   0.00000e+00 
   @DF-UKS iter   1:  -309.19034648178194   -3.38965e-01   6.07221e-03 ADIIS/DIIS
   @DF-UKS iter   2:  -309.10775105309932    8.25954e-02   6.74829e-03 ADIIS/DIIS
   @DF-UKS iter   3:  -309.55477244387959   -4.47021e-01   1.85172e-03 ADIIS/DIIS
   @DF-UKS iter   4:  -309.58780431604566   -3.30319e-02   4.32485e-04 ADIIS/DIIS
   @DF-UKS iter   5:  -309.58960073475504   -1.79642e-03   8.01034e-05 DIIS
   @DF-UKS iter   6:  -309.58965145242041   -5.07177e-05   3.37971e-05 DIIS
   @DF-UKS iter   7:  -309.58966170381302   -1.02514e-05   3.41742e-06 DIIS
   @DF-UKS iter   8:  -309.58966182366686   -1.19854e-07   8.20981e-07 DIIS
  Energy and wave function converged.


  ==> Post-Iterations <==

   Electrons on quadrature grid:
      Nalpha   =   28.0000318743 ; deviation = 3.187e-05
      Nbeta    =   28.0000318743 ; deviation = 3.187e-05
      Ntotal   =   56.0000637486 ; deviation = 6.375e-05 

   @Spin Contamination Metric:   3.552713679E-14
   @S^2 Expected:                0.000000000E+00
   @S^2 Observed:                3.552713679E-14
   @S   Expected:                0.000000000E+00
   @S   Observed:                0.000000000E+00

    Orbital Energies [Eh]
    ---------------------

    Alpha Occupied:                                                       

       1A    -10.202324     2A    -10.202295     3A    -10.193857  
       4A    -10.193763     5A    -10.193105     6A    -10.193083  
       7A    -10.192553     8A    -10.192544     9A     -0.864485  
      10A     -0.785714    11A     -0.746326    12A     -0.695774  
      13A     -0.629494    14A     -0.614245    15A     -0.572084  
      16A     -0.491084    17A     -0.477414    18A     -0.458553  
      19A     -0.424245    20A     -0.415862    21A     -0.406763  
      22A     -0.384167    23A     -0.377927    24A     -0.345892  
      25A     -0.345809    26A     -0.297155    27A     -0.253984  
      28A     -0.180302  

    Alpha Virtual:                                                        

      29A     -0.078978    30A     -0.002033    31A      0.054582  
      32A      0.099644    33A      0.119749    34A      0.127259  
      35A      0.144508    36A      0.172853    37A      0.175690  
      38A      0.184334    39A      0.195244    40A      0.195914  
      41A      0.239815    42A      0.292255    43A      0.332059  
      44A      0.339436    45A      0.341901    46A      0.370225  
      47A      0.479350    48A      0.511813    49A      0.515144  
      50A      0.526108    51A      0.535728    52A      0.547625  
      53A      0.562110    54A      0.595271    55A      0.596090  
      56A      0.599104    57A      0.600558    58A      0.625250  
      59A      0.631555    60A      0.635268    61A      0.643105  
      62A      0.660139    63A      0.692016    64A      0.717570  
      65A      0.793206    66A      0.818887    67A      0.826160  
      68A      0.836437    69A      0.861389    70A      0.864808  
      71A      0.871232    72A      0.922174    73A      0.930033  
      74A      0.957020    75A      0.985868    76A      1.000049  
      77A      1.004174    78A      1.010611    79A      1.091163  
      80A      1.161530    81A      1.163592    82A      1.170122  
      83A      1.245808    84A      1.304765    85A      1.311491  
      86A      1.322933    87A      1.376395    88A      1.393225  
      89A      1.453125    90A      1.455227    91A      1.461550  
      92A      1.508323    93A      1.538700    94A      1.674781  
      95A      1.692901    96A      1.765577    97A      1.809015  
      98A      1.817269    99A      1.862884   100A      1.901509  
     101A      1.906382   102A      1.973504   103A      1.998582  
     104A      2.004756   105A      2.027083   106A      2.068422  
     107A      2.102833   108A      2.133061   109A      2.139071  
     110A      2.215826   111A      2.302493   112A      2.311466  
     113A      2.314909   114A      2.343341   115A      2.349437  
     116A      2.359618   117A      2.384624   118A      2.448133  
     119A      2.599610   120A      2.640563   121A      2.655378  
     122A      2.749456   123A      2.838258   124A      2.839301  
     125A      2.903772   126A      2.914981   127A      3.120484  
     128A      3.423841   129A      4.069191   130A      4.075173  
     131A      4.113023   132A      4.130626   133A      4.210743  
     134A      4.326082   135A      4.443938   136A      4.724006  

    Beta Occupied:                                                        

       1A    -10.202324     2A    -10.202295     3A    -10.193857  
       4A    -10.193763     5A    -10.193105     6A    -10.193083  
       7A    -10.192553     8A    -10.192544     9A     -0.864485  
      10A     -0.785714    11A     -0.746326    12A     -0.695774  
      13A     -0.629494    14A     -0.614245    15A     -0.572084  
      16A     -0.491084    17A     -0.477414    18A     -0.458553  
      19A     -0.424245    20A     -0.415862    21A     -0.406763  
      22A     -0.384167    23A     -0.377927    24A     -0.345892  
      25A     -0.345809    26A     -0.297155    27A     -0.253984  
      28A     -0.180302  

    Beta Virtual:                                                         

      29A     -0.078978    30A     -0.002033    31A      0.054582  
      32A      0.099644    33A      0.119749    34A      0.127259  
      35A      0.144508    36A      0.172853    37A      0.175690  
      38A      0.184334    39A      0.195244    40A      0.195914  
      41A      0.239815    42A      0.292255    43A      0.332059  
      44A      0.339436    45A      0.341901    46A      0.370225  
      47A      0.479350    48A      0.511813    49A      0.515144  
      50A      0.526108    51A      0.535728    52A      0.547625  
      53A      0.562110    54A      0.595271    55A      0.596090  
      56A      0.599104    57A      0.600558    58A      0.625250  
      59A      0.631555    60A      0.635268    61A      0.643105  
      62A      0.660139    63A      0.692016    64A      0.717570  
      65A      0.793206    66A      0.818887    67A      0.826160  
      68A      0.836437    69A      0.861389    70A      0.864808  
      71A      0.871232    72A      0.922174    73A      0.930033  
      74A      0.957020    75A      0.985868    76A      1.000049  
      77A      1.004174    78A      1.010611    79A      1.091163  
      80A      1.161530    81A      1.163592    82A      1.170122  
      83A      1.245808    84A      1.304765    85A      1.311491  
      86A      1.322933    87A      1.376395    88A      1.393225  
      89A      1.453125    90A      1.455227    91A      1.461550  
      92A      1.508323    93A      1.538700    94A      1.674781  
      95A      1.692901    96A      1.765577    97A      1.809015  
      98A      1.817269    99A      1.862884   100A      1.901509  
     101A      1.906382   102A      1.973504   103A      1.998582  
     104A      2.004756   105A      2.027083   106A      2.068422  
     107A      2.102833   108A      2.133061   109A      2.139071  
     110A      2.215826   111A      2.302493   112A      2.311466  
     113A      2.314909   114A      2.343341   115A      2.349437  
     116A      2.359618   117A      2.384624   118A      2.448133  
     119A      2.599610   120A      2.640563   121A      2.655378  
     122A      2.749456   123A      2.838258   124A      2.839301  
     125A      2.903772   126A      2.914981   127A      3.120484  
     128A      3.423841   129A      4.069191   130A      4.075173  
     131A      4.113023   132A      4.130626   133A      4.210743  
     134A      4.326082   135A      4.443938   136A      4.724006  

    Final Occupation by Irrep:
              A 
    DOCC [    28 ]
    SOCC [     0 ]
    NA   [    28 ]
    NB   [    28 ]

  @DF-UKS Final Energy:  -309.58966182366686

   => Energetics <=

    Nuclear Repulsion Energy =            320.8536362772459825
    One-Electron Energy =               -1051.2830465868250940
    Two-Electron Energy =                 458.2983876804820511
    DFT Exchange-Correlation Energy =     -37.4586391945698196
    Empirical Dispersion Energy =           0.0000000000000000
    VV10 Nonlocal Energy =                  0.0000000000000000
    Total Energy =                       -309.5896618236668587

  UHF NO Occupations:
  HONO-2 :   26  A 2.0000000
  HONO-1 :   27  A 2.0000000
  HONO-0 :   28  A 2.0000000
  LUNO+0 :   29  A 0.0000000
  LUNO+1 :   30  A 0.0000000
  LUNO+2 :   31  A 0.0000000
  LUNO+3 :   32  A 0.0000000


Computation Completed


Properties will be evaluated at   0.000000,   0.000000,   0.000000 [a0]

Properties computed using the SCF density matrix


 Multipole Moments:

 ------------------------------------------------------------------------------------
     Multipole            Electronic (a.u.)      Nuclear  (a.u.)        Total (a.u.)
 ------------------------------------------------------------------------------------

 L = 1.  Multiply by 2.5417464519 to convert [e a0] to [Debye]
 Dipole X            :         -0.0028875           -0.0000009           -0.0028884
 Dipole Y            :         -0.0003352           -0.0000069           -0.0003421
 Dipole Z            :         -0.0000283            0.0000035           -0.0000248
 Magnitude           :                                                    0.0029087

 ------------------------------------------------------------------------------------

*** tstop() called on hpc-m36-4-9.local at Mon Mar  3 08:11:38 2025
Module time:
	user time   =      28.12 seconds =       0.47 minutes
	system time =       0.28 seconds =       0.00 minutes
	total time  =         29 seconds =       0.48 minutes
Total time:
	user time   =     227.11 seconds =       3.79 minutes
	system time =       2.62 seconds =       0.04 minutes
	total time  =        906 seconds =      15.10 minutes

Scratch directory: /tmp/
   => Libint2 <=

    Primary   basis highest AM E, G, H:  6, 6, 3
    Auxiliary basis highest AM E, G, H:  7, 7, 4
    Onebody   basis highest AM E, G, H:  -, -, -
    Solid Harmonics ordering:            Gaussian

*** tstart() called on hpc-m36-4-9.local
*** at Mon Mar  3 08:11:38 2025

   => Loading Basis Set <=

    Name: 6-31G(D)
    Role: ORBITAL
    Keyword: BASIS
    atoms 1-8  entry C          line   111 file /gpfs/home/gdb20/.conda/envs/CHM4411L/share/psi4/basis/6-31g_d_.gbs 
    atoms 9-16 entry H          line    44 file /gpfs/home/gdb20/.conda/envs/CHM4411L/share/psi4/basis/6-31g_d_.gbs 


         ---------------------------------------------------------
                                   SCF
               by Justin Turney, Rob Parrish, Andy Simmonett
                          and Daniel G. A. Smith
                              UKS Reference
                        1 Threads,    953 MiB Core
         ---------------------------------------------------------

  ==> Geometry <==

    Molecular point group: c1
    Full point group: C1

    Geometry (in Angstrom), charge = 0, multiplicity = 3:

       Center              X                  Y                   Z               Mass       
    ------------   -----------------  -----------------  -----------------  -----------------
         C           -0.629132884685    -1.235452894370     0.137561528152    12.000000000000
         C            0.767617115315    -1.156971894370     0.115130528152    12.000000000000
         C            1.404318115315     0.078905105630    -0.022552471848    12.000000000000
         C            2.856298115315     0.160490105630    -0.045869471848    12.000000000000
         C            0.629133115315     1.235452105630    -0.137562471848    12.000000000000
         C           -0.767616884685     1.156972105630    -0.115131471848    12.000000000000
         C           -1.404317884685    -0.078905894370     0.022552528152    12.000000000000
         C           -2.856298884685    -0.160488894370     0.045870528152    12.000000000000
         H           -1.100517884685    -2.209167894370     0.245733528152     1.007825032230
         H            1.348305115315    -2.071573894370     0.206406528152     1.007825032230
         H            3.346145115315     1.120038105630    -0.152731471848     1.007825032230
         H            3.453695115315    -0.737967894370     0.043533528152     1.007825032230
         H            1.100518115315     2.209167105630    -0.245734471848     1.007825032230
         H           -1.348304884685     2.071573105630    -0.206406471848     1.007825032230
         H           -3.453694884685     0.737970105630    -0.043524471848     1.007825032230
         H           -3.346144884685    -1.120036894370     0.152732528152     1.007825032230

  Running in c1 symmetry.

  Rotational constants: A =      0.18334  B =      0.05263  C =      0.04089 [cm^-1]
  Rotational constants: A =   5496.44984  B =   1577.94130  C =   1225.98186 [MHz]
  Nuclear repulsion =  320.853666388432259

  Charge       = 0
  Multiplicity = 3
  Electrons    = 56
  Nalpha       = 29
  Nbeta        = 27

  ==> Algorithm <==

  SCF Algorithm Type is DF.
  DIIS enabled.
  MOM disabled.
  Fractional occupation disabled.
  Guess Type is SAD.
  Energy threshold   = 1.00e-06
  Density threshold  = 1.00e-06
  Integral threshold = 1.00e-12

  ==> Primary Basis <==

  Basis Set: 6-31G(D)
    Blend: 6-31G(D)
    Number of shells: 64
    Number of basis functions: 136
    Number of Cartesian functions: 136
    Spherical Harmonics?: false
    Max angular momentum: 2

  ==> DFT Potential <==

   => LibXC <=

    Version 6.2.2
    S. Lehtola, C. Steigemann, M. J.T. Oliveira, and M. A.L. Marques.,  SoftwareX 7, 1–5 (2018) (10.1016/j.softx.2017.11.002)

   => Composite Functional: B3LYP <= 

    B3LYP Hyb-GGA Exchange-Correlation Functional

    P. J. Stephens, F. J. Devlin, C. F. Chabalowski, and M. J. Frisch.,  J. Phys. Chem. 98, 11623 (1994) (10.1021/j100096a001)

    Deriv               =              1
    GGA                 =           TRUE
    Meta                =          FALSE

    Exchange Hybrid     =           TRUE
    MP2 Hybrid          =          FALSE

   => Exchange Functionals <=

    0.0800   Slater exchange
    0.7200         Becke 88

   => Exact (HF) Exchange <=

    0.2000               HF 

   => Correlation Functionals <=

    0.1900   Vosko, Wilk & Nusair (VWN5_RPA)
    0.8100   Lee, Yang & Parr

   => LibXC Density Thresholds  <==

    XC_HYB_GGA_XC_B3LYP:  1.00E-15 

   => Molecular Quadrature <=

    Radial Scheme          =       TREUTLER
    Pruning Scheme         =           NONE
    Nuclear Scheme         =       TREUTLER

    Blocking Scheme        =         OCTREE
    BS radius alpha        =              1
    Pruning alpha          =              1
    Radial Points          =             75
    Spherical Points       =            302
    Total Points           =         335438
    Total Blocks           =           2516
    Max Points             =            256
    Max Functions          =            133
    Weights Tolerance      =       1.00E-15

   => Loading Basis Set <=

    Name: (6-31G(D) AUX)
    Role: JKFIT
    Keyword: DF_BASIS_SCF
    atoms 1-8  entry C          line   121 file /gpfs/home/gdb20/.conda/envs/CHM4411L/share/psi4/basis/cc-pvdz-jkfit.gbs 
    atoms 9-16 entry H          line    51 file /gpfs/home/gdb20/.conda/envs/CHM4411L/share/psi4/basis/cc-pvdz-jkfit.gbs 

  ==> Integral Setup <==

  DFHelper Memory: AOs need 0.122 GiB; user supplied 0.122 GiB. 
  Using in-core AOs.

  ==> MemDFJK: Density-Fitted J/K Matrices <==

    J tasked:                   Yes
    K tasked:                   Yes
    wK tasked:                   No
    OpenMP threads:               1
    Memory [MiB]:               125
    Algorithm:                 Core
    Schwarz Cutoff:           1E-12
    Mask sparsity (%):       3.4818
    Fitting Condition:        1E-10

   => Auxiliary Basis Set <=

  Basis Set: (6-31G(D) AUX)
    Blend: CC-PVDZ-JKFIT
    Number of shells: 264
    Number of basis functions: 848
    Number of Cartesian functions: 848
    Spherical Harmonics?: false
    Max angular momentum: 3

  Cached 50.0% of DFT collocation blocks in 0.484 [GiB].

  Minimum eigenvalue in the overlap matrix is 4.3098911382E-04.
  Reciprocal condition number of the overlap matrix is 5.5505859133E-05.
    Using symmetric orthogonalization.

  ==> Pre-Iterations <==

  SCF Guess: Superposition of Atomic Densities via on-the-fly atomic UHF (no occupation information).

   -------------------------
    Irrep   Nso     Nmo    
   -------------------------
     A        136     136 
   -------------------------
    Total     136     136
   -------------------------

  ==> Iterations <==

                           Total Energy        Delta E     RMS |[F,P]|

   @DF-UKS iter SAD:  -308.85138324910417   -3.08851e+02   0.00000e+00 
   @DF-UKS iter   1:  -309.16472507075690   -3.13342e-01   6.06673e-03 ADIIS/DIIS
   @DF-UKS iter   2:  -309.14403078861221    2.06943e-02   6.33263e-03 ADIIS/DIIS
   @DF-UKS iter   3:  -309.55723570203924   -4.13205e-01   9.17700e-04 ADIIS/DIIS
   @DF-UKS iter   4:  -309.56441164529645   -7.17594e-03   3.13914e-04 ADIIS/DIIS
   @DF-UKS iter   5:  -309.56543421666004   -1.02257e-03   6.52327e-05 DIIS
   @DF-UKS iter   6:  -309.56548795035195   -5.37337e-05   3.81495e-05 DIIS
   @DF-UKS iter   7:  -309.56550443205191   -1.64817e-05   1.28241e-05 DIIS
   @DF-UKS iter   8:  -309.56550721490385   -2.78285e-06   2.06531e-06 DIIS
   @DF-UKS iter   9:  -309.56550727846127   -6.35574e-08   4.08612e-07 DIIS
  Energy and wave function converged.


  ==> Post-Iterations <==

   Electrons on quadrature grid:
      Nalpha   =   29.0000273138 ; deviation = 2.731e-05
      Nbeta    =   27.0000351662 ; deviation = 3.517e-05
      Ntotal   =   56.0000624800 ; deviation = 6.248e-05 

   @Spin Contamination Metric:   7.925774303E-03
   @S^2 Expected:                2.000000000E+00
   @S^2 Observed:                2.007925774E+00
   @S   Expected:                1.000000000E+00
   @S   Observed:                1.000000000E+00

    Orbital Energies [Eh]
    ---------------------

    Alpha Occupied:                                                       

       1A    -10.195796     2A    -10.195791     3A    -10.193247  
       4A    -10.193246     5A    -10.189168     6A    -10.189139  
       7A    -10.188623     8A    -10.188610     9A     -0.862064  
      10A     -0.789249    11A     -0.746011    12A     -0.709131  
      13A     -0.638197    14A     -0.611401    15A     -0.571905  
      16A     -0.492019    17A     -0.477509    18A     -0.458306  
      19A     -0.421342    20A     -0.418904    21A     -0.407778  
      22A     -0.384579    23A     -0.382918    24A     -0.347928  
      25A     -0.341900    26A     -0.315213    27A     -0.256640  
      28A     -0.227531    29A     -0.151036  

    Alpha Virtual:                                                        

      30A     -0.007576    31A      0.042155    32A      0.100237  
      33A      0.116240    34A      0.127455    35A      0.140116  
      36A      0.171407    37A      0.172039    38A      0.183800  
      39A      0.194508    40A      0.194988    41A      0.238549  
      42A      0.289179    43A      0.331759    44A      0.340613  
      45A      0.343141    46A      0.370792    47A      0.479733  
      48A      0.508025    49A      0.511458    50A      0.525849  
      51A      0.527002    52A      0.537111    53A      0.564692  
      54A      0.578811    55A      0.595206    56A      0.596560  
      57A      0.598539    58A      0.626176    59A      0.629645  
      60A      0.631639    61A      0.636869    62A      0.658403  
      63A      0.683620    64A      0.718134    65A      0.792838  
      66A      0.819375    67A      0.827222    68A      0.834599  
      69A      0.860033    70A      0.864288    71A      0.871912  
      72A      0.920192    73A      0.927076    74A      0.954786  
      75A      0.987379    76A      0.996860    77A      1.003399  
      78A      1.004154    79A      1.089529    80A      1.160432  
      81A      1.161681    82A      1.172609    83A      1.246970  
      84A      1.302660    85A      1.312075    86A      1.314892  
      87A      1.366848    88A      1.394390    89A      1.453360  
      90A      1.453526    91A      1.462014    92A      1.508576  
      93A      1.538931    94A      1.646492    95A      1.665783  
      96A      1.761664    97A      1.811888    98A      1.814143  
      99A      1.857364   100A      1.895745   101A      1.902248  
     102A      1.975850   103A      1.991563   104A      1.999081  
     105A      2.026642   106A      2.059516   107A      2.101393  
     108A      2.120349   109A      2.139925   110A      2.206582  
     111A      2.302250   112A      2.312411   113A      2.313071  
     114A      2.341210   115A      2.342070   116A      2.352129  
     117A      2.378690   118A      2.443815   119A      2.600294  
     120A      2.642387   121A      2.655533   122A      2.752420  
     123A      2.839697   124A      2.840903   125A      2.906018  
     126A      2.914264   127A      3.122883   128A      3.426365  
     129A      4.065327   130A      4.069261   131A      4.114505  
     132A      4.126112   133A      4.207888   134A      4.328268  
     135A      4.444330   136A      4.725125  

    Beta Occupied:                                                        

       1A    -10.196130     2A    -10.196125     3A    -10.187687  
       4A    -10.187662     5A    -10.187144     6A    -10.187133  
       7A    -10.181176     8A    -10.181175     9A     -0.856433  
      10A     -0.777150    11A     -0.741121    12A     -0.683276  
      13A     -0.613466    14A     -0.608011    15A     -0.566107  
      16A     -0.485506    17A     -0.473255    18A     -0.455391  
      19A     -0.419911    20A     -0.411236    21A     -0.401408  
      22A     -0.379497    23A     -0.366326    24A     -0.342145  
      25A     -0.340951    26A     -0.276935    27A     -0.241734  

    Beta Virtual:                                                         

      28A     -0.103185    29A     -0.028168    30A      0.006584  
      31A      0.075278    32A      0.102659    33A      0.125203  
      34A      0.129075    35A      0.151941    36A      0.175414  
      37A      0.185859    38A      0.189760    39A      0.196915  
      40A      0.198174    41A      0.244319    42A      0.295910  
      43A      0.336640    44A      0.341304    45A      0.346086  
      46A      0.375095    47A      0.481180    48A      0.516726  
      49A      0.525733    50A      0.533337    51A      0.538492  
      52A      0.568199    53A      0.572198    54A      0.599299  
      55A      0.602368    56A      0.603734    57A      0.628603  
      58A      0.630797    59A      0.634064    60A      0.644232  
      61A      0.652659    62A      0.665907    63A      0.706948  
      64A      0.722237    65A      0.798112    66A      0.823915  
      67A      0.830660    68A      0.841060    69A      0.866578  
      70A      0.868726    71A      0.873372    72A      0.928004  
      73A      0.938219    74A      0.963392    75A      0.991181  
      76A      1.006216    77A      1.008242    78A      1.021096  
      79A      1.096025    80A      1.166126    81A      1.169374  
      82A      1.174624    83A      1.253149    84A      1.310053  
      85A      1.313906    86A      1.335960    87A      1.389840  
      88A      1.395680    89A      1.457680    90A      1.462976  
      91A      1.470080    92A      1.516422    93A      1.543095  
      94A      1.703690    95A      1.721278    96A      1.775786  
      97A      1.812631    98A      1.827646    99A      1.873380  
     100A      1.905634   101A      1.921644   102A      1.978713  
     103A      2.002785   104A      2.022740   105A      2.034857  
     106A      2.082455   107A      2.108888   108A      2.146814  
     109A      2.147621   110A      2.232563   111A      2.310074  
     112A      2.317418   113A      2.320188   114A      2.348845  
     115A      2.364889   116A      2.374489   117A      2.396344  
     118A      2.460482   119A      2.606377   120A      2.646673  
     121A      2.661660   122A      2.754649   123A      2.843547  
     124A      2.844344   125A      2.908095   126A      2.922533  
     127A      3.124400   128A      3.427863   129A      4.078849  
     130A      4.086102   131A      4.118355   132A      4.142074  
     133A      4.222804   134A      4.332186   135A      4.451286  
     136A      4.729441  

    Final Occupation by Irrep:
              A 
    DOCC [    27 ]
    SOCC [     2 ]
    NA   [    29 ]
    NB   [    27 ]

  @DF-UKS Final Energy:  -309.56550727846127

   => Energetics <=

    Nuclear Repulsion Energy =            320.8536663884322593
    One-Electron Energy =               -1051.3790595789428153
    Two-Electron Energy =                 458.4586409293378892
    DFT Exchange-Correlation Energy =     -37.4987550172885236
    Empirical Dispersion Energy =           0.0000000000000000
    VV10 Nonlocal Energy =                  0.0000000000000000
    Total Energy =                       -309.5655072784612685

  UHF NO Occupations:
  HONO-2 :   27  A 1.9990955
  HONO-1 :   28  A 1.0000000
  HONO-0 :   29  A 1.0000000
  LUNO+0 :   30  A 0.0009045
  LUNO+1 :   31  A 0.0008927
  LUNO+2 :   32  A 0.0007170
  LUNO+3 :   33  A 0.0006703


Computation Completed


Properties will be evaluated at   0.000000,   0.000000,   0.000000 [a0]

Properties computed using the SCF density matrix


 Multipole Moments:

 ------------------------------------------------------------------------------------
     Multipole            Electronic (a.u.)      Nuclear  (a.u.)        Total (a.u.)
 ------------------------------------------------------------------------------------

 L = 1.  Multiply by 2.5417464519 to convert [e a0] to [Debye]
 Dipole X            :          0.0000069            0.0000009            0.0000078
 Dipole Y            :         -0.0000062            0.0000017           -0.0000045
 Dipole Z            :         -0.0000060            0.0000086            0.0000027
 Magnitude           :                                                    0.0000094

 ------------------------------------------------------------------------------------

*** tstop() called on hpc-m36-4-9.local at Mon Mar  3 08:12:09 2025
Module time:
	user time   =      31.07 seconds =       0.52 minutes
	system time =       0.30 seconds =       0.01 minutes
	total time  =         31 seconds =       0.52 minutes
Total time:
	user time   =     258.23 seconds =       4.30 minutes
	system time =       2.92 seconds =       0.05 minutes
	total time  =        937 seconds =      15.62 minutes
